 vasp.6.3.2 27Jun22 (build Jul 17 2022 02:16:49) gamma-only                      
 executed on                 AOCC date 2024.02.07  04:32:05
 running on  128 total cores
 distrk:  each k-point on  128 cores,    1 groups
 distr:  one band on NCORE=  16 cores,    8 groups


--------------------------------------------------------------------------------------------------------


 INCAR:
   RANDOM_SEED = 413800587                0                0
   PREC = NORMAL
   LREAL = Auto
   ENCUT = 400
   ISYM = 0
   ISPIN = 1
   ALGO = FAST
   EDIFF = 1e-4
   NELM = 1000
   MAXMIX = 80
   ISMEAR = 0
   SIGMA = 0.02
   GGA = PE
   IBRION = 0
   NSW = 10
   POTIM = 1
   SMASS = 3
   TEBEG = 300
   TEEND = 300
   NWRITE = 0
   LCHARG = .FALSE.
   LWAVE = .FALSE.
   NBLOCK = 1
   MDALGO = 2
   LBLUEOUT = .TRUE.
   SHAKETOL = 1e-5
   SHAKEMAXITER = 1000
   NSIM = 128
   NPAR = 8
   KPAR = 1
   LPLANE = .TRUE.
   LSCALU = .FALSE.
   LSCALAPACK = .FALSE.

 POTCAR:    PAW_PBE Si 05Jan2001                  
 POTCAR:    PAW_PBE H 15Jun2001                   
 POTCAR:    PAW_PBE C 08Apr2002                   
 POTCAR:    PAW_PBE N 08Apr2002                   
 POTCAR:    PAW_PBE O 08Apr2002                   
 POTCAR:    PAW_PBE Si 05Jan2001                  
  local pseudopotential read in
  partial core-charges read in
  partial kinetic energy density read in
  atomic valenz-charges read in
  non local Contribution for L=            0  read in
    real space projection operators read in
  non local Contribution for L=            0  read in
    real space projection operators read in
  non local Contribution for L=            1  read in
    real space projection operators read in
  non local Contribution for L=            1  read in
    real space projection operators read in
    PAW grid and wavefunctions read in
 
   number of l-projection  operators is LMAX  =            4
   number of lm-projection operators is LMMAX =            8
 
 POTCAR:    PAW_PBE H 15Jun2001                   
  local pseudopotential read in
  atomic valenz-charges read in
  non local Contribution for L=            0  read in
    real space projection operators read in
  non local Contribution for L=            0  read in
    real space projection operators read in
  non local Contribution for L=            1  read in
    real space projection operators read in
    PAW grid and wavefunctions read in
 
   number of l-projection  operators is LMAX  =            3
   number of lm-projection operators is LMMAX =            5
 
 POTCAR:    PAW_PBE C 08Apr2002                   
  local pseudopotential read in
  partial core-charges read in
  partial kinetic energy density read in
  atomic valenz-charges read in
  non local Contribution for L=            0  read in
    real space projection operators read in
  non local Contribution for L=            0  read in
    real space projection operators read in
  non local Contribution for L=            1  read in
    real space projection operators read in
  non local Contribution for L=            1  read in
    real space projection operators read in
    PAW grid and wavefunctions read in
 
   number of l-projection  operators is LMAX  =            4
   number of lm-projection operators is LMMAX =            8
 
 POTCAR:    PAW_PBE N 08Apr2002                   
  local pseudopotential read in
  partial core-charges read in
  partial kinetic energy density read in
  atomic valenz-charges read in
  non local Contribution for L=            0  read in
    real space projection operators read in
  non local Contribution for L=            0  read in
    real space projection operators read in
  non local Contribution for L=            1  read in
    real space projection operators read in
  non local Contribution for L=            1  read in
    real space projection operators read in
    PAW grid and wavefunctions read in
 
   number of l-projection  operators is LMAX  =            4
   number of lm-projection operators is LMMAX =            8
 
 POTCAR:    PAW_PBE O 08Apr2002                   
  local pseudopotential read in
  partial core-charges read in
  partial kinetic energy density read in
  kinetic energy density of atom read in
  atomic valenz-charges read in
  non local Contribution for L=            0  read in
    real space projection operators read in
  non local Contribution for L=            0  read in
    real space projection operators read in
  non local Contribution for L=            1  read in
    real space projection operators read in
  non local Contribution for L=            1  read in
    real space projection operators read in
    PAW grid and wavefunctions read in
 
   number of l-projection  operators is LMAX  =            4
   number of lm-projection operators is LMMAX =            8
 
 Optimization of the real space projectors (new method)

 maximal supplied QI-value         = 19.84
 optimisation between [QCUT,QGAM] = [ 10.12, 20.44] = [ 28.68,116.96] Ry 
 Optimized for a Real-space Cutoff    1.23 Angstroem

   l    n(q)    QCUT    max X(q) W(low)/X(q) W(high)/X(q)  e(spline) 
   0      7    10.119   159.560    0.56E-04    0.22E-03    0.45E-07
   0      7    10.119   115.863    0.56E-04    0.21E-03    0.45E-07
   1      7    10.119    88.339    0.34E-03    0.49E-03    0.11E-06
   1      7    10.119    48.592    0.33E-03    0.48E-03    0.11E-06
 Optimization of the real space projectors (new method)

 maximal supplied QI-value         = 34.20
 optimisation between [QCUT,QGAM] = [  9.92, 20.18] = [ 27.55,114.04] Ry 
 Optimized for a Real-space Cutoff    1.26 Angstroem

   l    n(q)    QCUT    max X(q) W(low)/X(q) W(high)/X(q)  e(spline) 
   0      8     9.919    19.460    0.50E-03    0.23E-03    0.29E-06
   0      8     9.919    12.209    0.48E-03    0.23E-03    0.28E-06
   1      7     9.919     4.655    0.17E-03    0.75E-03    0.30E-06
 Optimization of the real space projectors (new method)

 maximal supplied QI-value         = 25.13
 optimisation between [QCUT,QGAM] = [ 10.05, 20.36] = [ 28.30,116.06] Ry 
 Optimized for a Real-space Cutoff    1.30 Angstroem

   l    n(q)    QCUT    max X(q) W(low)/X(q) W(high)/X(q)  e(spline) 
   0      8    10.053   115.676    0.49E-03    0.72E-03    0.18E-06
   0      8    10.053    87.132    0.49E-03    0.71E-03    0.18E-06
   1      7    10.053     4.429    0.32E-03    0.31E-03    0.18E-06
   1      7    10.053     2.733    0.23E-03    0.19E-03    0.20E-06
 Optimization of the real space projectors (new method)

 maximal supplied QI-value         = 25.13
 optimisation between [QCUT,QGAM] = [ 10.05, 20.36] = [ 28.30,116.06] Ry 
 Optimized for a Real-space Cutoff    1.65 Angstroem

   l    n(q)    QCUT    max X(q) W(low)/X(q) W(high)/X(q)  e(spline) 
   0     10    10.053    79.467    0.76E-04    0.72E-04    0.56E-06
   0     10    10.053    66.151    0.76E-04    0.72E-04    0.55E-06
   1     10    10.053     8.350    0.25E-03    0.92E-03    0.41E-05
   1     10    10.053     5.531    0.27E-03    0.10E-02    0.45E-05
 Optimization of the real space projectors (new method)

 maximal supplied QI-value         = 24.76
 optimisation between [QCUT,QGAM] = [ 10.15, 20.30] = [ 28.85,115.39] Ry 
 Optimized for a Real-space Cutoff    1.38 Angstroem

   l    n(q)    QCUT    max X(q) W(low)/X(q) W(high)/X(q)  e(spline) 
   0      8    10.150    20.381    0.22E-03    0.32E-03    0.29E-06
   0      8    10.150    15.268    0.23E-03    0.35E-03    0.30E-06
   1      8    10.150     5.964    0.46E-03    0.53E-03    0.21E-06
   1      8    10.150     5.382    0.38E-03    0.45E-03    0.19E-06
  PAW_PBE Si 05Jan2001                  :
 energy of atom  1       EATOM= -103.0669
 kinetic energy error for atom=    0.0012 (will be added to EATOM!!)
  PAW_PBE H 15Jun2001                   :
 energy of atom  2       EATOM=  -12.4884
 kinetic energy error for atom=    0.0098 (will be added to EATOM!!)
  PAW_PBE C 08Apr2002                   :
 energy of atom  3       EATOM= -147.1560
 kinetic energy error for atom=    0.0288 (will be added to EATOM!!)
  PAW_PBE N 08Apr2002                   :
 energy of atom  4       EATOM= -264.5486
 kinetic energy error for atom=    0.0736 (will be added to EATOM!!)
  PAW_PBE O 08Apr2002                   :
 energy of atom  5       EATOM= -432.3788
 kinetic energy error for atom=    0.1156 (will be added to EATOM!!)
 
 
 POSCAR: Si H C N O
  positions in direct lattice
  No initial velocities read in

  MD-specific parameters
                MDALGO =   2
                 CNEXP =     9.000   14.000
 exchange correlation table for  LEXCH =        8
   RHO(1)=    0.500       N(1)  =     2000
   RHO(2)=  100.500       N(2)  =     4000

 VTST: version 4.2, (08/11/21)

 CHAIN: initializing optimizer
 
 OPT: Using VASP Dynamics algorithm
 CHAIN: Read ICHAIN             0
 
 POSCAR: Si H C N O
  positions in direct lattice
  No initial velocities read in
 


--------------------------------------------------------------------------------------------------------


 ion  position               nearest neighbor table
   1  0.401  0.610  0.551- 123 1.62 104 1.62  77 1.63 105 1.63  15 3.08
   2  0.539  0.614  0.555- 102 1.61 145 1.62 124 1.63  77 1.63
   3  0.466  0.611  0.172-  86 1.63  79 1.63  78 1.64  85 1.65  13 3.14   8 3.14
   4  0.398  0.416  0.548- 114 1.61 103 1.63 128 1.63  80 1.63  11 3.07
   5  0.535  0.408  0.556- 101 1.62 115 1.62  80 1.63 129 1.63  17 3.08  21 3.11
   6  0.464  0.402  0.184-  82 1.64 113 1.64  87 1.64  81 1.64   8 3.08
   7  0.483  0.538  0.394-  88 1.62  89 1.62  93 1.63  99 1.63   8 3.09
   8  0.459  0.510  0.264-  87 1.62  86 1.62  89 1.63  90 1.64   6 3.08   7 3.09   3 3.14
   9  0.323  0.528  0.256-  90 1.62  91 1.63  83 1.64  84 1.65
  10  0.264  0.549  0.378- 100 1.63  92 1.63  91 1.63 106 1.64  11 3.13
  11  0.365  0.512  0.462-  93 1.62  92 1.62 103 1.63 104 1.63   4 3.07  10 3.13
  12  0.474  0.676  0.390-  94 1.61  99 1.62  95 1.63  98 1.64  15 3.11  13 3.12  20 3.13
  13  0.433  0.706  0.264-  85 1.61  95 1.63 118 1.64  96 1.66  12 3.12   3 3.14
  14  0.262  0.686  0.402-  61 1.48  60 1.50 100 1.63  97 1.64  15 3.07
  15  0.372  0.714  0.471-  98 1.63 105 1.63  97 1.64 117 1.64  14 3.07   1 3.08  12 3.11
  16  0.392  0.277  0.547- 107 1.63 112 1.63 114 1.64 137 1.64  17 3.13
  17  0.528  0.274  0.553- 110 1.61 107 1.63 115 1.63 138 1.64  18 3.06   5 3.08  30 3.11  16 3.13

  18  0.574  0.161  0.501-  76 1.63 119 1.64 108 1.64 110 1.66  17 3.06
  19  0.563  0.855  0.481- 116 1.64 111 1.64 120 1.64 109 1.65  20 3.11
  20  0.572  0.720  0.474- 121 1.61 116 1.62 102 1.64  94 1.65  19 3.11  12 3.13
  21  0.585  0.508  0.480-  88 1.63 145 1.64 101 1.64  74 1.86   5 3.11
  22  0.369  0.588  0.685- 123 1.61 126 1.63 122 1.64 132 1.64  23 3.11
  23  0.473  0.614  0.767- 125 1.62 135 1.63 134 1.64 126 1.64  22 3.11
  24  0.368  0.451  0.679- 128 1.62 132 1.63 127 1.64 131 1.64  25 3.12
  25  0.469  0.414  0.762- 136 1.62 141 1.62 130 1.63 131 1.63  24 3.12  29 3.13  27 3.14
  26  0.428  0.512  0.849-  63 1.48  62 1.49 135 1.64 136 1.64
  27  0.481  0.278  0.767-  64 1.48  65 1.50 139 1.64 141 1.64  30 3.13  25 3.14
  28  0.578  0.583  0.682- 125 1.62 124 1.62 133 1.63 142 1.64  29 3.13
  29  0.574  0.447  0.682- 129 1.62 133 1.62 130 1.63 143 1.66  25 3.13  28 3.13
  30  0.578  0.250  0.676- 144 1.62 138 1.63 139 1.64 140 1.66  17 3.11  27 3.13
  31  0.580  0.141  0.597-  76 0.98
  32  0.329  0.625  0.239-  83 0.99
  33  0.371  0.595  0.156-  79 0.98
  34  0.268  0.473  0.194-  84 0.97
  35  0.369  0.431  0.175-  82 0.98
  36  0.341  0.705  0.300-  96 0.98
  37  0.556  0.930  0.543- 111 0.97
  38  0.472  0.305  0.186- 113 0.97
  39  0.483  0.158  0.462- 108 0.97
  40  0.315  0.237  0.501- 112 0.97
  41  0.474  0.840  0.442- 109 0.97
  42  0.464  0.800  0.269- 118 0.97
  43  0.381  0.799  0.519- 117 0.97
  44  0.185  0.499  0.407- 106 0.97
  45  0.639  0.159  0.428- 119 0.97
  46  0.630  0.874  0.411- 120 0.97
  47  0.660  0.670  0.453- 121 1.01
  48  0.518  0.639  0.095-  78 0.97
  49  0.512  0.439  0.108-  81 0.97
  50  0.731  0.607  0.419-  75 1.02
  51  0.748  0.656  0.468-  75 1.02
  52  0.289  0.605  0.740- 122 0.97
  53  0.293  0.424  0.736- 127 0.97
  54  0.463  0.704  0.805- 134 0.97
  55  0.386  0.263  0.645- 137 0.97
  56  0.634  0.170  0.683- 140 0.97
  57  0.642  0.651  0.712- 142 0.97
  58  0.660  0.425  0.726- 143 0.97
  59  0.636  0.330  0.685- 144 0.99
  60  0.276  0.724  0.350-  14 1.50
  61  0.200  0.694  0.420-  14 1.48
  62  0.364  0.516  0.843-  26 1.49
  63  0.446  0.509  0.911-  26 1.48
  64  0.475  0.246  0.823-  27 1.48
  65  0.431  0.266  0.727-  27 1.50
  66  0.687  0.587  0.536-  72 1.10
  67  0.763  0.578  0.527-  72 1.10
  68  0.713  0.486  0.515-  73 1.10
  69  0.750  0.506  0.452-  73 1.11
  70  0.659  0.465  0.420-  74 1.10
  71  0.654  0.540  0.407-  74 1.10
  72  0.721  0.578  0.504-  66 1.10  67 1.10  75 1.48  73 1.53
  73  0.712  0.517  0.479-  68 1.10  69 1.11  72 1.53  74 1.54
  74  0.657  0.508  0.442-  71 1.10  70 1.10  73 1.54  21 1.86
  75  0.719  0.624  0.459-  51 1.02  50 1.02  72 1.48
  76  0.570  0.122  0.560-  31 0.98  18 1.63
  77  0.471  0.597  0.548-   1 1.63   2 1.63
  78  0.522  0.615  0.129-  48 0.97   3 1.64
  79  0.408  0.597  0.134-  33 0.98   3 1.63
  80  0.468  0.427  0.544-   5 1.63   4 1.63
  81  0.515  0.407  0.135-  49 0.97   6 1.64
  82  0.402  0.418  0.152-  35 0.98   6 1.64
  83  0.317  0.588  0.219-  32 0.99   9 1.64
  84  0.306  0.474  0.212-  34 0.97   9 1.65
  85  0.458  0.673  0.208-  13 1.61   3 1.65
  86  0.481  0.560  0.219-   8 1.62   3 1.63
  87  0.475  0.446  0.240-   8 1.62   6 1.64
  88  0.533  0.507  0.431-   7 1.62  21 1.63
  89  0.492  0.520  0.326-   7 1.62   8 1.63
  90  0.390  0.516  0.276-   9 1.62   8 1.64
  91  0.281  0.528  0.313-   9 1.63  10 1.63
  92  0.305  0.516  0.426-  11 1.62  10 1.63
  93  0.419  0.516  0.416-  11 1.62   7 1.63
  94  0.521  0.716  0.423-  12 1.61  20 1.65
  95  0.473  0.690  0.321-  12 1.63  13 1.63
  96  0.365  0.684  0.272-  36 0.98  13 1.66
  97  0.303  0.706  0.456-  15 1.64  14 1.64
  98  0.408  0.691  0.415-  15 1.63  12 1.64
  99  0.488  0.608  0.401-  12 1.62   7 1.63
 100  0.274  0.619  0.382-  10 1.63  14 1.63
 101  0.579  0.450  0.520-   5 1.62  21 1.64
 102  0.553  0.678  0.528-   2 1.61  20 1.64
 103  0.366  0.450  0.495-   4 1.63  11 1.63
 104  0.368  0.565  0.509-   1 1.62  11 1.63
 105  0.387  0.677  0.530-  15 1.63   1 1.63
 106  0.196  0.536  0.391-  44 0.97  10 1.64
 107  0.460  0.263  0.534-  17 1.63  16 1.63
 108  0.523  0.144  0.454-  39 0.97  18 1.64
 109  0.509  0.863  0.434-  41 0.97  19 1.65
 110  0.570  0.231  0.517-  17 1.61  18 1.66
 111  0.552  0.888  0.543-  37 0.97  19 1.64
 112  0.356  0.245  0.495-  40 0.97  16 1.63
 113  0.468  0.337  0.213-  38 0.97   6 1.64
 114  0.382  0.348  0.546-   4 1.61  16 1.64
 115  0.546  0.341  0.537-   5 1.62  17 1.63
 116  0.570  0.786  0.499-  20 1.62  19 1.64
 117  0.390  0.782  0.481-  43 0.97  15 1.64
 118  0.431  0.777  0.255-  42 0.97  13 1.64
 119  0.636  0.148  0.468-  45 0.97  18 1.64
 120  0.622  0.883  0.452-  46 0.97  19 1.64
 121  0.634  0.705  0.447-  47 1.01  20 1.61
 122  0.303  0.609  0.700-  52 0.97  22 1.64
 123  0.378  0.603  0.617-  22 1.61   1 1.62
 124  0.556  0.615  0.623-  28 1.62   2 1.63
 125  0.528  0.588  0.732-  23 1.62  28 1.62
 126  0.416  0.622  0.725-  22 1.63  23 1.64
 127  0.303  0.428  0.696-  53 0.97  24 1.64
 128  0.374  0.444  0.609-  24 1.62   4 1.63
 129  0.547  0.415  0.626-  29 1.62   5 1.63
 130  0.528  0.443  0.736-  29 1.63  25 1.63
 131  0.418  0.412  0.712-  25 1.63  24 1.64
 132  0.379  0.518  0.697-  24 1.63  22 1.64
 133  0.591  0.514  0.671-  29 1.62  28 1.63
 134  0.493  0.677  0.792-  54 0.97  23 1.64
 135  0.458  0.569  0.820-  23 1.63  26 1.64
 136  0.449  0.451  0.818-  25 1.62  26 1.64
 137  0.368  0.250  0.609-  55 0.97  16 1.64
 138  0.532  0.265  0.623-  30 1.63  17 1.64
 139  0.542  0.257  0.737-  27 1.64  30 1.64
 140  0.597  0.181  0.666-  56 0.97  30 1.66
 141  0.482  0.347  0.782-  25 1.62  27 1.64
 142  0.640  0.610  0.704-  57 0.97  28 1.64
 143  0.633  0.409  0.698-  58 0.97  29 1.66
 144  0.637  0.288  0.676-  59 0.99  30 1.62
 145  0.578  0.565  0.522-   2 1.62  21 1.64
 

IMPORTANT INFORMATION: All symmetrisations will be switched off!
NOSYMM: (Re-)initialisation of all symmetry stuff for point group C_1.


----------------------------------------------------------------------------------------

                                     Primitive cell                                     

  volume of cell :   12167.0000

  direct lattice vectors                    reciprocal lattice vectors
    23.000000000  0.000000000  0.000000000     0.043478261  0.000000000  0.000000000
     0.000000000 23.000000000  0.000000000     0.000000000  0.043478261  0.000000000
     0.000000000  0.000000000 23.000000000     0.000000000  0.000000000  0.043478261

  length of vectors
    23.000000000 23.000000000 23.000000000     0.043478261  0.043478261  0.043478261

  position of ions in fractional coordinates (direct lattice)
     0.401303670  0.610236121  0.551123978
     0.539333457  0.614236622  0.554740464
     0.465730939  0.611058670  0.172321545
     0.398008053  0.415959733  0.548406128
     0.534888538  0.408202362  0.556150515
     0.463967271  0.402227739  0.184417436
     0.482711200  0.537761898  0.393503296
     0.459479282  0.509953430  0.264007108
     0.323230209  0.527715900  0.255793520
     0.264482351  0.549351979  0.378088001
     0.365451597  0.511911808  0.461511819
     0.473720898  0.676151200  0.390073530
     0.433383496  0.706493182  0.264151312
     0.261527008  0.686317331  0.401803191
     0.372257110  0.713564507  0.471371028
     0.391803296  0.277098923  0.546960718
     0.527556850  0.274484060  0.552881987
     0.573876807  0.161035133  0.500542049
     0.562902731  0.854530990  0.481085708
     0.571684146  0.719987430  0.473796330
     0.585054167  0.508095476  0.479808617
     0.368886799  0.587739724  0.684907387
     0.473044080  0.614120512  0.767032963
     0.368325424  0.450539438  0.678645387
     0.468837036  0.413605655  0.761647152
     0.428002271  0.511886356  0.849153573
     0.480693864  0.277552340  0.767257450
     0.578370918  0.582707415  0.682428094
     0.574226352  0.446583859  0.682381481
     0.577806464  0.249884839  0.675763974
     0.580393769  0.140589118  0.596843176
     0.329348041  0.624836946  0.238613836
     0.370623084  0.594553588  0.155657614
     0.267807686  0.473039374  0.194389877
     0.368703900  0.431432250  0.174568724
     0.340723710  0.704893929  0.299699537
     0.556168923  0.929735886  0.542961211
     0.472027007  0.304890651  0.186352374
     0.483410719  0.157616646  0.461994769
     0.315017660  0.237361823  0.500938676
     0.473993989  0.840468093  0.441724439
     0.463911853  0.799845091  0.268728513
     0.381042545  0.799403470  0.518781618
     0.185414293  0.498595518  0.406520978
     0.638771256  0.158709633  0.427653892
     0.629819011  0.873611080  0.411311024
     0.659988320  0.669655319  0.452540847
     0.517977228  0.639132837  0.094704506
     0.512415546  0.439134506  0.107832078
     0.731176102  0.607333440  0.419262124
     0.747804512  0.656170508  0.468263486
     0.289219522  0.604513846  0.739922985
     0.293358162  0.423501526  0.736352159
     0.463376556  0.704177643  0.805476641
     0.386306103  0.262646034  0.644924733
     0.634399280  0.169885043  0.682715075
     0.642471583  0.650973393  0.711863144
     0.660414473  0.424982692  0.726019859
     0.636416468  0.330105478  0.685169895
     0.275971215  0.723758222  0.350464741
     0.200148046  0.693845903  0.420069199
     0.363536980  0.516446882  0.843229836
     0.446280589  0.509261106  0.910908332
     0.474644212  0.245718750  0.822910820
     0.430880983  0.265806914  0.727141992
     0.687042415  0.587294635  0.536391371
     0.762974649  0.578189262  0.527094412
     0.713125498  0.485720667  0.515266819
     0.750288630  0.506204323  0.451615655
     0.659254932  0.465328697  0.420380040
     0.654112389  0.540165637  0.407079302
     0.720935185  0.577751216  0.503984967
     0.712119620  0.516837637  0.478814731
     0.656651578  0.507848096  0.442441269
     0.718786725  0.623772657  0.458780772
     0.569603314  0.122273571  0.559773164
     0.470717066  0.597406049  0.548125178
     0.521829767  0.614621066  0.128770259
     0.407500819  0.597360239  0.134071110
     0.467838698  0.426944631  0.543590542
     0.515346709  0.406902266  0.134908711
     0.402248201  0.417513531  0.152256088
     0.317204883  0.588486847  0.218589704
     0.306112154  0.473502888  0.212023217
     0.458279527  0.672684636  0.207894229
     0.481129353  0.560059615  0.219183880
     0.475236670  0.445921160  0.239875692
     0.533303059  0.506744908  0.431274285
     0.491850121  0.519507351  0.326133959
     0.389557401  0.515672844  0.275808325
     0.281178081  0.527808547  0.312708339
     0.304632214  0.515818468  0.425800785
     0.419187318  0.516407421  0.416077128
     0.521489601  0.715649701  0.422765618
     0.473060414  0.690318661  0.320828375
     0.364985690  0.684270522  0.271654986
     0.303102624  0.705969313  0.456392888
     0.408456118  0.690772296  0.414975016
     0.488097172  0.607941989  0.401232634
     0.274074322  0.619401218  0.381507896
     0.578971843  0.449555898  0.520105939
     0.552564940  0.677779701  0.528156166
     0.366310021  0.449525260  0.494869580
     0.367683549  0.564756583  0.508780729
     0.387356929  0.676560054  0.529982800
     0.195800017  0.536474509  0.391259914
     0.460129611  0.262930580  0.534368615
     0.522522582  0.143898067  0.453943052
     0.509332021  0.862534275  0.434055365
     0.569712986  0.231073606  0.517416283
     0.552452475  0.887682173  0.543380665
     0.355928180  0.245215749  0.494602724
     0.468209077  0.337127434  0.213233101
     0.382266279  0.347604537  0.545643145
     0.546077681  0.341188516  0.537480383
     0.570071170  0.786009456  0.498608533
     0.389627402  0.782141707  0.481241029
     0.431344942  0.776959306  0.254796419
     0.636193516  0.148320275  0.468440299
     0.621610365  0.882603988  0.451651615
     0.634383942  0.705000970  0.446656470
     0.302698217  0.608753903  0.700224997
     0.378000644  0.603123914  0.617010203
     0.556191244  0.614628156  0.623453303
     0.528038749  0.588147973  0.731599332
     0.416155756  0.622271625  0.725125912
     0.303036433  0.427861390  0.695566498
     0.374314428  0.443709440  0.609017117
     0.547062106  0.415161603  0.625765495
     0.527936913  0.442902267  0.735691299
     0.417863880  0.411982028  0.712166342
     0.378638428  0.518350026  0.697187290
     0.591448661  0.513939199  0.670587386
     0.493187773  0.677387565  0.792482598
     0.457747693  0.569469852  0.819880879
     0.448622031  0.451223632  0.817770582
     0.368436547  0.250231209  0.608695579
     0.532343618  0.264955794  0.623342741
     0.541531674  0.257122467  0.736620536
     0.597408306  0.181348334  0.665894844
     0.481684270  0.347348446  0.782298275
     0.640445821  0.609500177  0.704473940
     0.633392552  0.408696256  0.697986733
     0.637129280  0.288176130  0.676419622
     0.578062923  0.565265641  0.521675876

  ion indices of the primitive-cell ions
   primitive index   ion index
                 1           1
                 2           2
                 3           3
                 4           4
                 5           5
                 6           6
                 7           7
                 8           8
                 9           9
                10          10
                11          11
                12          12
                13          13
                14          14
                15          15
                16          16
                17          17
                18          18
                19          19
                20          20
                21          21
                22          22
                23          23
                24          24
                25          25
                26          26
                27          27
                28          28
                29          29
                30          30
                31          31
                32          32
                33          33
                34          34
                35          35
                36          36
                37          37
                38          38
                39          39
                40          40
                41          41
                42          42
                43          43
                44          44
                45          45
                46          46
                47          47
                48          48
                49          49
                50          50
                51          51
                52          52
                53          53
                54          54
                55          55
                56          56
                57          57
                58          58
                59          59
                60          60
                61          61
                62          62
                63          63
                64          64
                65          65
                66          66
                67          67
                68          68
                69          69
                70          70
                71          71
                72          72
                73          73
                74          74
                75          75
                76          76
                77          77
                78          78
                79          79
                80          80
                81          81
                82          82
                83          83
                84          84
                85          85
                86          86
                87          87
                88          88
                89          89
                90          90
                91          91
                92          92
                93          93
                94          94
                95          95
                96          96
                97          97
                98          98
                99          99
               100         100
               101         101
               102         102
               103         103
               104         104
               105         105
               106         106
               107         107
               108         108
               109         109
               110         110
               111         111
               112         112
               113         113
               114         114
               115         115
               116         116
               117         117
               118         118
               119         119
               120         120
               121         121
               122         122
               123         123
               124         124
               125         125
               126         126
               127         127
               128         128
               129         129
               130         130
               131         131
               132         132
               133         133
               134         134
               135         135
               136         136
               137         137
               138         138
               139         139
               140         140
               141         141
               142         142
               143         143
               144         144
               145         145

----------------------------------------------------------------------------------------

 
 
 KPOINTS: Automatic mesh                          

Automatic generation of k-mesh.
 Grid dimensions read from file:
 generate k-points for:    1    1    1

 Generating k-lattice:

  Cartesian coordinates                     Fractional coordinates (reciprocal lattice)
     0.043478261  0.000000000  0.000000000     1.000000000  0.000000000  0.000000000
     0.000000000  0.043478261  0.000000000     0.000000000  1.000000000  0.000000000
     0.000000000  0.000000000  0.043478261     0.000000000  0.000000000  1.000000000

  Length of vectors
     0.043478261  0.043478261  0.043478261

  Shift w.r.t. Gamma in fractional coordinates (k-lattice)
     0.000000000  0.000000000  0.000000000

 
 Subroutine IBZKPT returns following result:
 ===========================================
 
 Found      1 irreducible k-points:
 
 Following reciprocal coordinates:
            Coordinates               Weight
  0.000000  0.000000  0.000000      1.000000
 
 Following cartesian coordinates:
            Coordinates               Weight
  0.000000  0.000000  0.000000      1.000000
 


--------------------------------------------------------------------------------------------------------




 Dimension of arrays:
   k-points           NKPTS =      1   k-points in BZ     NKDIM =      1   number of bands    NBANDS=    376
   number of dos      NEDOS =    301   number of ions     NIONS =    145
   non local maximal  LDIM  =      4   non local SUM 2l+1 LMDIM =      8
   total plane-waves  NPLWV = ******
   max r-space proj   IRMAX =   2714   max aug-charges    IRDMAX=   4947
   dimension x,y,z NGX =   120 NGY =  120 NGZ =  120
   dimension x,y,z NGXF=   240 NGYF=  240 NGZF=  240
   support grid    NGXF=   240 NGYF=  240 NGZF=  240
   ions per type =              30  41   3   1  70
   NGX,Y,Z   is equivalent  to a cutoff of   8.67,  8.67,  8.67 a.u.
   NGXF,Y,Z  is equivalent  to a cutoff of  17.35, 17.35, 17.35 a.u.

 SYSTEM =  unknown system                          
 POSCAR =  Si H C N O                              

 Startparameter for this run:
   NWRITE =      0    write-flag & timer
   PREC   = normal    normal or accurate (medium, high low for compatibility)
   ISTART =      0    job   : 0-new  1-cont  2-samecut
   ICHARG =      2    charge: 1-file 2-atom 10-const
   ISPIN  =      1    spin polarized calculation?
   LNONCOLLINEAR =      F non collinear calculations
   LSORBIT =      F    spin-orbit coupling
   INIWAV =      1    electr: 0-lowe 1-rand  2-diag
   LASPH  =      F    aspherical Exc in radial PAW
 Electronic Relaxation 1
   ENCUT  =  400.0 eV  29.40 Ry    5.42 a.u.  37.51 37.51 37.51*2*pi/ulx,y,z
   ENINI  =  400.0     initial cutoff
   ENAUG  =  644.9 eV  augmentation charge cutoff
   NELM   =   1000;   NELMIN=  2; NELMDL=  0     # of ELM steps 
   EDIFF  = 0.1E-03   stopping-criterion for ELM
   LREAL  =      T    real-space projection
   NLSPLINE    = F    spline interpolate recip. space projectors
   LCOMPAT=      F    compatible to vasp.4.4
   GGA_COMPAT  = T    GGA compatible to vasp.4.4-vasp.4.6
   LMAXPAW     = -100 max onsite density
   LMAXMIX     =    2 max onsite mixed and CHGCAR
   VOSKOWN=      0    Vosko Wilk Nusair interpolation
   ROPT   =   -0.00050  -0.00050  -0.00050  -0.00050
   ROPT   =   -0.00050
 Ionic relaxation
   EDIFFG = 0.1E-02   stopping-criterion for IOM
   NSW    =     10    number of steps for IOM
   NBLOCK =      1;   KBLOCK =     10    inner block; outer block 
   IBRION =      0    ionic relax: 0-MD 1-quasi-New 2-CG
   NFREE  =      0    steps in history (QN), initial steepest desc. (CG)
   ISIF   =      0    stress and relaxation
   IWAVPR =     12    prediction:  0-non 1-charg 2-wave 3-comb
   ISYM   =      0    0-nonsym 1-usesym 2-fastsym
   LCORR  =      T    Harris-Foulkes like correction to forces

   POTIM  = 1.0000    time-step for ionic-motion
   TEIN   =  300.0    initial temperature
   TEBEG  =  300.0;   TEEND  = 300.0 temperature during run
   SMASS  =   3.00    Nose mass-parameter (am)
   estimated Nose-frequenzy (Omega)   =  0.12E+14 period in steps = 0.54E+03 mass=   0.121E-25a.u.
   SCALEE = 1.0000    scale energy and forces
   NPACO  =    256;   APACO  = 10.0  distance and # of slots for P.C.
   PSTRESS=    0.0 pullay stress

  Mass of Ions in am
   POMASS =  28.09  1.00 12.01 14.00 16.00
  Ionic Valenz
   ZVAL   =   4.00  1.00  4.00  5.00  6.00
  Atomic Wigner-Seitz radii
   RWIGS  =  -1.00 -1.00 -1.00 -1.00 -1.00
  virtual crystal weights 
   VCA    =   1.00  1.00  1.00  1.00  1.00
   NELECT =     598.0000    total number of electrons
   NUPDOWN=      -1.0000    fix difference up-down

 DOS related values:
   EMIN   =  10.00;   EMAX   =-10.00  energy-range for DOS
   EFERMI =   0.00
   ISMEAR =     0;   SIGMA  =   0.02  broadening in eV -4-tet -1-fermi 0-gaus

 Electronic relaxation 2 (details)
   IALGO  =     68    algorithm
   LDIAG  =      T    sub-space diagonalisation (order eigenvalues)
   LSUBROT=      F    optimize rotation matrix (better conditioning)
   TURBO    =      0    0=normal 1=particle mesh
   IRESTART =      0    0=no restart 2=restart with 2 vectors
   NREBOOT  =      0    no. of reboots
   NMIN     =      0    reboot dimension
   EREF     =   0.00    reference energy to select bands
   IMIX   =      4    mixing-type and parameters
     AMIX     =   0.40;   BMIX     =  1.00
     AMIX_MAG =   1.60;   BMIX_MAG =  1.00
     AMIN     =   0.10
     WC   =   100.;   INIMIX=   1;  MIXPRE=   1;  MAXMIX=  80

 Intra band minimization:
   WEIMIN = 0.0010     energy-eigenvalue tresh-hold
   EBREAK =  0.66E-07  absolut break condition
   DEPER  =   0.30     relativ break condition  

   TIME   =   0.40     timestep for ELM

  volume/ion in A,a.u.               =      83.91       566.25
  Fermi-wavevector in a.u.,A,eV,Ry     =   0.599672  1.133217  4.892750  0.359607
  Thomas-Fermi vector in A             =   1.651243
 
 Write flags
   LWAVE        =      F    write WAVECAR
   LDOWNSAMPLE  =      F    k-point downsampling of WAVECAR
   LCHARG       =      F    write CHGCAR
   LVTOT        =      F    write LOCPOT, total local potential
   LVHAR        =      F    write LOCPOT, Hartree potential only
   LELF         =      F    write electronic localiz. function (ELF)
   LORBIT       =      0    0 simple, 1 ext, 2 COOP (PROOUT), +10 PAW based schemes


 Dipole corrections
   LMONO  =      F    monopole corrections only (constant potential shift)
   LDIPOL =      F    correct potential (dipole corrections)
   IDIPOL =      0    1-x, 2-y, 3-z, 4-all directions 
   EPSILON=  1.0000000 bulk dielectric constant

 Exchange correlation treatment:
   GGA     =    PE    GGA type
   LEXCH   =     8    internal setting for exchange type
   LIBXC   =     F    Libxc                    
   VOSKOWN =     0    Vosko Wilk Nusair interpolation
   LHFCALC =     F    Hartree Fock is set to
   LHFONE  =     F    Hartree Fock one center treatment
   AEXX    =    0.0000 exact exchange contribution

 Linear response parameters
   LEPSILON=     F    determine dielectric tensor
   LRPA    =     F    only Hartree local field effects (RPA)
   LNABLA  =     F    use nabla operator in PAW spheres
   LVEL    =     F    velocity operator in full k-point grid
   CSHIFT  =0.1000    complex shift for real part using Kramers Kronig
   OMEGAMAX=  -1.0    maximum frequency
   DEG_THRESHOLD= 0.2000000E-02 threshold for treating states as degnerate
   RTIME   =   -0.100 relaxation time in fs
  (WPLASMAI=    0.000 imaginary part of plasma frequency in eV, 0.658/RTIME)
   DFIELD  = 0.0000000 0.0000000 0.0000000 field for delta impulse in time
 
  Optional k-point grid parameters
   LKPOINTS_OPT  =     F    use optional k-point grid
   KPOINTS_OPT_MODE=     1    mode for optional k-point grid
 
 Orbital magnetization related:
   ORBITALMAG=     F  switch on orbital magnetization
   LCHIMAG   =     F  perturbation theory with respect to B field
   DQ        =  0.001000  dq finite difference perturbation B field
   LLRAUG    =     F  two centre corrections for induced B field



--------------------------------------------------------------------------------------------------------


 molecular dynamics for ions
   using nose mass (canonical ensemble)
   using selective dynamics as specified on POSCAR
 charge density and potential will be updated during run
 non-spin polarized calculation
 RMM-DIIS sequential band-by-band and
  variant of blocked Davidson during initial phase
 perform sub-space diagonalisation
    before iterative eigenvector-optimisation
 modified Broyden-mixing scheme, WC =      100.0
 initial mixing is a Kerker type mixing with AMIX =  0.4000 and BMIX =      1.0000
 Hartree-type preconditioning will be used
 using additional bands            77
 real space projection scheme for non local part
 use partial core corrections
 calculate Harris-corrections to forces 
   (improved forces if not selfconsistent)
 use gradient corrections 
 use of overlap-Matrix (Vanderbilt PP)
 Gauss-broadening in eV      SIGMA  =   0.02


--------------------------------------------------------------------------------------------------------


  energy-cutoff  :      400.00
  volume of cell :    12167.00
      direct lattice vectors                 reciprocal lattice vectors
    23.000000000  0.000000000  0.000000000     0.043478261  0.000000000  0.000000000
     0.000000000 23.000000000  0.000000000     0.000000000  0.043478261  0.000000000
     0.000000000  0.000000000 23.000000000     0.000000000  0.000000000  0.043478261

  length of vectors
    23.000000000 23.000000000 23.000000000     0.043478261  0.043478261  0.043478261


 
 k-points in units of 2pi/SCALE and weight: Automatic mesh                          
   0.00000000  0.00000000  0.00000000       1.000
 
 k-points in reciprocal lattice and weights: Automatic mesh                          
   0.00000000  0.00000000  0.00000000       1.000
 
 position of ions in fractional coordinates (direct lattice) 
   0.40130367  0.61023612  0.55112398
   0.53933346  0.61423662  0.55474046
   0.46573094  0.61105867  0.17232154
   0.39800805  0.41595973  0.54840613
   0.53488854  0.40820236  0.55615052
   0.46396727  0.40222774  0.18441744
   0.48271120  0.53776190  0.39350330
   0.45947928  0.50995343  0.26400711
   0.32323021  0.52771590  0.25579352
   0.26448235  0.54935198  0.37808800
   0.36545160  0.51191181  0.46151182
   0.47372090  0.67615120  0.39007353
   0.43338350  0.70649318  0.26415131
   0.26152701  0.68631733  0.40180319
   0.37225711  0.71356451  0.47137103
   0.39180330  0.27709892  0.54696072
   0.52755685  0.27448406  0.55288199
   0.57387681  0.16103513  0.50054205
   0.56290273  0.85453099  0.48108571
   0.57168415  0.71998743  0.47379633
   0.58505417  0.50809548  0.47980862
   0.36888680  0.58773972  0.68490739
   0.47304408  0.61412051  0.76703296
   0.36832542  0.45053944  0.67864539
   0.46883704  0.41360566  0.76164715
   0.42800227  0.51188636  0.84915357
   0.48069386  0.27755234  0.76725745
   0.57837092  0.58270741  0.68242809
   0.57422635  0.44658386  0.68238148
   0.57780646  0.24988484  0.67576397
   0.58039377  0.14058912  0.59684318
   0.32934804  0.62483695  0.23861384
   0.37062308  0.59455359  0.15565761
   0.26780769  0.47303937  0.19438988
   0.36870390  0.43143225  0.17456872
   0.34072371  0.70489393  0.29969954
   0.55616892  0.92973589  0.54296121
   0.47202701  0.30489065  0.18635237
   0.48341072  0.15761665  0.46199477
   0.31501766  0.23736182  0.50093868
   0.47399399  0.84046809  0.44172444
   0.46391185  0.79984509  0.26872851
   0.38104255  0.79940347  0.51878162
   0.18541429  0.49859552  0.40652098
   0.63877126  0.15870963  0.42765389
   0.62981901  0.87361108  0.41131102
   0.65998832  0.66965532  0.45254085
   0.51797723  0.63913284  0.09470451
   0.51241555  0.43913451  0.10783208
   0.73117610  0.60733344  0.41926212
   0.74780451  0.65617051  0.46826349
   0.28921952  0.60451385  0.73992299
   0.29335816  0.42350153  0.73635216
   0.46337656  0.70417764  0.80547664
   0.38630610  0.26264603  0.64492473
   0.63439928  0.16988504  0.68271507
   0.64247158  0.65097339  0.71186314
   0.66041447  0.42498269  0.72601986
   0.63641647  0.33010548  0.68516990
   0.27597121  0.72375822  0.35046474
   0.20014805  0.69384590  0.42006920
   0.36353698  0.51644688  0.84322984
   0.44628059  0.50926111  0.91090833
   0.47464421  0.24571875  0.82291082
   0.43088098  0.26580691  0.72714199
   0.68704242  0.58729463  0.53639137
   0.76297465  0.57818926  0.52709441
   0.71312550  0.48572067  0.51526682
   0.75028863  0.50620432  0.45161565
   0.65925493  0.46532870  0.42038004
   0.65411239  0.54016564  0.40707930
   0.72093518  0.57775122  0.50398497
   0.71211962  0.51683764  0.47881473
   0.65665158  0.50784810  0.44244127
   0.71878672  0.62377266  0.45878077
   0.56960331  0.12227357  0.55977316
   0.47071707  0.59740605  0.54812518
   0.52182977  0.61462107  0.12877026
   0.40750082  0.59736024  0.13407111
   0.46783870  0.42694463  0.54359054
   0.51534671  0.40690227  0.13490871
   0.40224820  0.41751353  0.15225609
   0.31720488  0.58848685  0.21858970
   0.30611215  0.47350289  0.21202322
   0.45827953  0.67268464  0.20789423
   0.48112935  0.56005961  0.21918388
   0.47523667  0.44592116  0.23987569
   0.53330306  0.50674491  0.43127429
   0.49185012  0.51950735  0.32613396
   0.38955740  0.51567284  0.27580832
   0.28117808  0.52780855  0.31270834
   0.30463221  0.51581847  0.42580079
   0.41918732  0.51640742  0.41607713
   0.52148960  0.71564970  0.42276562
   0.47306041  0.69031866  0.32082838
   0.36498569  0.68427052  0.27165499
   0.30310262  0.70596931  0.45639289
   0.40845612  0.69077230  0.41497502
   0.48809717  0.60794199  0.40123263
   0.27407432  0.61940122  0.38150790
   0.57897184  0.44955590  0.52010594
   0.55256494  0.67777970  0.52815617
   0.36631002  0.44952526  0.49486958
   0.36768355  0.56475658  0.50878073
   0.38735693  0.67656005  0.52998280
   0.19580002  0.53647451  0.39125991
   0.46012961  0.26293058  0.53436861
   0.52252258  0.14389807  0.45394305
   0.50933202  0.86253428  0.43405537
   0.56971299  0.23107361  0.51741628
   0.55245248  0.88768217  0.54338067
   0.35592818  0.24521575  0.49460272
   0.46820908  0.33712743  0.21323310
   0.38226628  0.34760454  0.54564314
   0.54607768  0.34118852  0.53748038
   0.57007117  0.78600946  0.49860853
   0.38962740  0.78214171  0.48124103
   0.43134494  0.77695931  0.25479642
   0.63619352  0.14832028  0.46844030
   0.62161037  0.88260399  0.45165162
   0.63438394  0.70500097  0.44665647
   0.30269822  0.60875390  0.70022500
   0.37800064  0.60312391  0.61701020
   0.55619124  0.61462816  0.62345330
   0.52803875  0.58814797  0.73159933
   0.41615576  0.62227162  0.72512591
   0.30303643  0.42786139  0.69556650
   0.37431443  0.44370944  0.60901712
   0.54706211  0.41516160  0.62576549
   0.52793691  0.44290227  0.73569130
   0.41786388  0.41198203  0.71216634
   0.37863843  0.51835003  0.69718729
   0.59144866  0.51393920  0.67058739
   0.49318777  0.67738756  0.79248260
   0.45774769  0.56946985  0.81988088
   0.44862203  0.45122363  0.81777058
   0.36843655  0.25023121  0.60869558
   0.53234362  0.26495579  0.62334274
   0.54153167  0.25712247  0.73662054
   0.59740831  0.18134833  0.66589484
   0.48168427  0.34734845  0.78229827
   0.64044582  0.60950018  0.70447394
   0.63339255  0.40869626  0.69798673
   0.63712928  0.28817613  0.67641962
   0.57806292  0.56526564  0.52167588
 
 position of ions in cartesian coordinates  (Angst):
   9.22998442 14.03543078 12.67585149
  12.40466950 14.12744231 12.75903066
  10.71181161 14.05434942  3.96339553
   9.15418522  9.56707387 12.61334095
  12.30243638  9.38865433 12.79146185
  10.67124723  9.25123800  4.24160103
  11.10235761 12.36852366  9.05057580
  10.56802348 11.72892889  6.07216349
   7.43429482 12.13746570  5.88325096
   6.08309408 12.63509552  8.69602402
   8.40538673 11.77397159 10.61477185
  10.89558066 15.55147760  8.97169119
   9.96782042 16.24934320  6.07548017
   6.01512118 15.78529862  9.24147339
   8.56191353 16.41198365 10.84153363
   9.01147581  6.37327524 12.58009651
  12.13380756  6.31313337 12.71628570
  13.19916657  3.70380805 11.51246713
  12.94676281 19.65421278 11.06497129
  13.14873537 16.55971088 10.89731558
  13.45624584 11.68619595 11.03559819
   8.48439637 13.51801364 15.75286991
  10.88001384 14.12477178 17.64175815
   8.47148474 10.36240706 15.60884391
  10.78325183  9.51293007 17.51788449
   9.84405223 11.77338620 19.53053218
  11.05595888  6.38370382 17.64692135
  13.30253112 13.40227054 15.69584617
  13.20720610 10.27142876 15.69477407
  13.28954866  5.74735131 15.54257140
  13.34905669  3.23354970 13.72739304
   7.57500494 14.37124975  5.48811823
   8.52433092 13.67473252  3.58012513
   6.15957677 10.87990560  4.47096718
   8.48018970  9.92294174  4.01508066
   7.83664533 16.21256036  6.89308935
  12.79188523 21.38392537 12.48810786
  10.85662115  7.01248498  4.28610459
  11.11844653  3.62518287 10.62587970
   7.24540619  5.45932192 11.52158955
  10.90186174 19.33076613 10.15966209
  10.66997262 18.39643710  6.18075579
   8.76397854 18.38627981 11.93197722
   4.26452874 11.46769691  9.34998249
  14.69173889  3.65032157  9.83603951
  14.48583726 20.09305484  9.46015356
  15.17973135 15.40207233 10.40843948
  11.91347624 14.70005524  2.17820363
  11.78555755 10.10009364  2.48013778
  16.81705035 13.96866912  9.64302885
  17.19950378 15.09192167 10.77006017
   6.65204901 13.90381845 17.01822867
   6.74723773  9.74053509 16.93609965
  10.65766079 16.19608579 18.52596273
   8.88504037  6.04085877 14.83326886
  14.59118343  3.90735599 15.70244672
  14.77684641 14.97238804 16.37285231
  15.18953288  9.77460192 16.69845677
  14.63757876  7.59242600 15.75890759
   6.34733794 16.64643911  8.06068903
   4.60340505 15.95845578  9.66159158
   8.36135055 11.87827829 19.39428623
  10.26445355 11.71300543 20.95089164
  10.91681686  5.65153124 18.92694887
   9.91026261  6.11355902 16.72426582
  15.80197555 13.50777660 12.33700153
  17.54841693 13.29835303 12.12317147
  16.40188645 11.17157534 11.85113684
  17.25663848 11.64269944 10.38716006
  15.16286343 10.70256002  9.66874092
  15.04458494 12.42380964  9.36282394
  16.58150925 13.28827797 11.59165425
  16.37875125 11.88726566 11.01273881
  15.10298629 11.68050620 10.17614920
  16.53209467 14.34677112 10.55195777
  13.10087623  2.81229214 12.87478278
  10.82649251 13.74033913 12.60687909
  12.00208464 14.13628452  2.96171596
   9.37251884 13.73928551  3.08363553
  10.76029006  9.81972651 12.50258247
  11.85297430  9.35875213  3.10290035
   9.25170863  9.60281121  3.50189002
   7.29571231 13.53519749  5.02756319
   7.04057954 10.89056642  4.87653400
  10.54042913 15.47174663  4.78156726
  11.06597513 12.88137114  5.04122925
  10.93044340 10.25618668  5.51714092
  12.26597035 11.65513288  9.91930856
  11.31255278 11.94866907  7.50108106
   8.95982023 11.86047541  6.34359147
   6.46709586 12.13959659  7.19229179
   7.00654091 11.86382477  9.79341806
   9.64130831 11.87737068  9.56977395
  11.99426083 16.45994311  9.72360921
  10.88038951 15.87732920  7.37905264
   8.39467088 15.73822200  6.24806467
   6.97136036 16.23729419 10.49703643
   9.39449072 15.88776280  9.54442537
  11.22623497 13.98266574  9.22835057
   6.30370940 14.24622802  8.77468161
  13.31635239 10.33978564 11.96243660
  12.70899361 15.58893312 12.14759183
   8.42513048 10.33908097 11.38200034
   8.45672162 12.98940141 11.70195676
   8.90920937 15.56088124 12.18960441
   4.50340040 12.33891370  8.99897801
  10.58298106  6.04740333 12.29047814
  12.01801939  3.30965553 10.44069019
  11.71463648 19.83828833  9.98327340
  13.10339868  5.31469293 11.90057451
  12.70640693 20.41668997 12.49775530
   8.18634814  5.63996223 11.37586266
  10.76880876  7.75393098  4.90436131
   8.79212441  7.99490435 12.54979233
  12.55978667  7.84733587 12.36204881
  13.11163692 18.07821750 11.46799626
   8.96143024 17.98925926 11.06854366
   9.92093366 17.87006404  5.86031764
  14.63245088  3.41136634 10.77412687
  14.29703840 20.29989172 10.38798716
  14.59083066 16.21502232 10.27309881
   6.96205898 14.00133976 16.10517492
   8.69401482 13.87185003 14.19123468
  12.79239861 14.13644759 14.33942598
  12.14489123 13.52740337 16.82678463
   9.57158239 14.31224737 16.67789598
   6.96983796  9.84081198 15.99802946
   8.60923183 10.20531712 14.00739369
  12.58242844  9.54871686 14.39260638
  12.14254900 10.18675214 16.92089987
   9.61086923  9.47558665 16.37982586
   8.70868385 11.92205060 16.03530767
  13.60331920 11.82060158 15.42350987
  11.34331878 15.57991399 18.22709974
  10.52819694 13.09780660 18.85726021
  10.31830671 10.37814354 18.80872340
   8.47404058  5.75531781 13.99999832
  12.24390321  6.09398326 14.33688304
  12.45522850  5.91381673 16.94227232
  13.74039104  4.17101169 15.31558140
  11.07873821  7.98901425 17.99286032
  14.73025388 14.01850407 16.20290061
  14.56802870  9.40001389 16.05369485
  14.65397343  6.62805098 15.55765130
  13.29544723 13.00110973 11.99854515
 


--------------------------------------------------------------------------------------------------------


 use parallel FFT for orbitals z direction half grid
 k-point   1 :   0.0000 0.0000 0.0000  plane waves:  110560

 maximum and minimum number of plane-waves per node :      6917     6902

 maximum number of plane-waves:    110560
 maximum index in each direction: 
   IXMAX=   37   IYMAX=   37   IZMAX=   37
   IXMIN=  -37   IYMIN=  -37   IZMIN=    0


 real space projection operators:
  total allocation   :      10904.11 KBytes
  max/ min on nodes  :        698.46        654.63


 parallel 3D FFT for wavefunctions:
    minimum data exchange during FFTs selected (reduces bandwidth)
 parallel 3D FFT for charge:
    minimum data exchange during FFTs selected (reduces bandwidth)


 total amount of memory used by VASP MPI-rank0    56304. kBytes
=======================================================================

   base      :      30000. kBytes
   nonlr-proj:        843. kBytes
   fftplans  :       6316. kBytes
   grid      :      13900. kBytes
   one-center:         15. kBytes
   wavefun   :       5230. kBytes
 
     INWAV:  cpu time      0.0000: real time      0.0000
 Broyden mixing: mesh for mixing (old mesh)
   NGX = 75   NGY = 75   NGZ = 75
  (NGX  =240   NGY  =240   NGZ  =240)
  gives a total of 421875 points

 initial charge density was supplied:
 charge density of overlapping atoms calculated
 number of electron     598.0000000 magnetization 
 keeping initial charge density in first step


--------------------------------------------------------------------------------------------------------


 Maximum index for non-local projection operator           160
 Maximum index for augmentation-charges           334 (set IRDMAX)


--------------------------------------------------------------------------------------------------------


 First call to EWALD:  gamma=   0.077
 Maximum number of real-space cells 3x 3x 3
 Maximum number of reciprocal cells 3x 3x 3

    FEWALD:  cpu time      0.0581: real time      0.0582


--------------------------------------- Iteration      1(   1)  ---------------------------------------


    POTLOK:  cpu time      0.1769: real time      0.1797
    SETDIJ:  cpu time      0.0082: real time      0.0082
     EDDAV:  cpu time      8.6537: real time      8.6787
       DOS:  cpu time      0.0359: real time      0.0359
    --------------------------------------------
      LOOP:  cpu time      8.8747: real time      8.9025

 eigenvalue-minimisations  :  1008
 total energy-change (2. order) : 0.4447053E+04  (-0.2237907E+05)
 number of electron     598.0000000 magnetization 
 augmentation part      598.0000000 magnetization 

 Free energy of the ion-electron system (eV)
  ---------------------------------------------------
  alpha Z        PSCENC =       101.08303108
  Ewald energy   TEWEN  =    103341.51171589
  -Hartree energ DENC   =   -131009.87703302
  -exchange      EXHF   =         0.00000000
  -V(xc)+E(xc)   XCENC  =      1833.83672314
  PAW double counting   =     27520.17136640   -27121.54304893
  entropy T*S    EENTRO =        -0.00660540
  eigenvalues    EBANDS =     -4785.99960177
  atomic energy  EATOM  =     34567.87672263
  Solvation  Ediel_sol  =         0.00000000
  ---------------------------------------------------
  free energy    TOTEN  =      4447.05327002 eV

  energy without entropy =     4447.05987542  energy(sigma->0) =     4447.05657272


--------------------------------------------------------------------------------------------------------




--------------------------------------- Iteration      1(   2)  ---------------------------------------


     EDDAV:  cpu time     13.0935: real time     13.1230
       DOS:  cpu time      0.0359: real time      0.0359
    --------------------------------------------
      LOOP:  cpu time     13.1294: real time     13.1589

 eigenvalue-minimisations  :  1504
 total energy-change (2. order) :-0.4793976E+04  (-0.4762842E+04)
 number of electron     598.0000000 magnetization 
 augmentation part      598.0000000 magnetization 

 Free energy of the ion-electron system (eV)
  ---------------------------------------------------
  alpha Z        PSCENC =       101.08303108
  Ewald energy   TEWEN  =    103341.51171589
  -Hartree energ DENC   =   -131009.87703302
  -exchange      EXHF   =         0.00000000
  -V(xc)+E(xc)   XCENC  =      1833.83672314
  PAW double counting   =     27520.17136640   -27121.54304893
  entropy T*S    EENTRO =        -0.00000000
  eigenvalues    EBANDS =     -9579.98184232
  atomic energy  EATOM  =     34567.87672263
  Solvation  Ediel_sol  =         0.00000000
  ---------------------------------------------------
  free energy    TOTEN  =      -346.92236513 eV

  energy without entropy =     -346.92236513  energy(sigma->0) =     -346.92236513


--------------------------------------------------------------------------------------------------------




--------------------------------------- Iteration      1(   3)  ---------------------------------------


     EDDAV:  cpu time      6.2566: real time      6.2734
       DOS:  cpu time      0.0384: real time      0.0384
    --------------------------------------------
      LOOP:  cpu time      6.2950: real time      6.3119

 eigenvalue-minimisations  :   752
 total energy-change (2. order) :-0.7090803E+03  (-0.7085714E+03)
 number of electron     598.0000000 magnetization 
 augmentation part      598.0000000 magnetization 

 Free energy of the ion-electron system (eV)
  ---------------------------------------------------
  alpha Z        PSCENC =       101.08303108
  Ewald energy   TEWEN  =    103341.51171589
  -Hartree energ DENC   =   -131009.87703302
  -exchange      EXHF   =         0.00000000
  -V(xc)+E(xc)   XCENC  =      1833.83672314
  PAW double counting   =     27520.17136640   -27121.54304893
  entropy T*S    EENTRO =        -0.00000000
  eigenvalues    EBANDS =    -10289.06213244
  atomic energy  EATOM  =     34567.87672263
  Solvation  Ediel_sol  =         0.00000000
  ---------------------------------------------------
  free energy    TOTEN  =     -1056.00265525 eV

  energy without entropy =    -1056.00265525  energy(sigma->0) =    -1056.00265525


--------------------------------------------------------------------------------------------------------




--------------------------------------- Iteration      1(   4)  ---------------------------------------


     EDDAV:  cpu time      7.6928: real time      7.7141
       DOS:  cpu time      0.0367: real time      0.0367
    --------------------------------------------
      LOOP:  cpu time      7.7295: real time      7.7508

 eigenvalue-minimisations  :   992
 total energy-change (2. order) :-0.2542635E+02  (-0.2537790E+02)
 number of electron     598.0000000 magnetization 
 augmentation part      598.0000000 magnetization 

 Free energy of the ion-electron system (eV)
  ---------------------------------------------------
  alpha Z        PSCENC =       101.08303108
  Ewald energy   TEWEN  =    103341.51171589
  -Hartree energ DENC   =   -131009.87703302
  -exchange      EXHF   =         0.00000000
  -V(xc)+E(xc)   XCENC  =      1833.83672314
  PAW double counting   =     27520.17136640   -27121.54304893
  entropy T*S    EENTRO =        -0.00000000
  eigenvalues    EBANDS =    -10314.48848455
  atomic energy  EATOM  =     34567.87672263
  Solvation  Ediel_sol  =         0.00000000
  ---------------------------------------------------
  free energy    TOTEN  =     -1081.42900736 eV

  energy without entropy =    -1081.42900736  energy(sigma->0) =    -1081.42900736


--------------------------------------------------------------------------------------------------------




--------------------------------------- Iteration      1(   5)  ---------------------------------------


     EDDAV:  cpu time      7.7151: real time      7.7308
       DOS:  cpu time      0.0355: real time      0.0355
    CHARGE:  cpu time      0.1358: real time      0.1360
    MIXING:  cpu time      0.0058: real time      0.0058
    --------------------------------------------
      LOOP:  cpu time      7.8922: real time      7.9081

 eigenvalue-minimisations  :   992
 total energy-change (2. order) :-0.3044324E+00  (-0.3041969E+00)
 number of electron     598.0000086 magnetization 
 augmentation part       53.2227765 magnetization 

 Broyden mixing:
  rms(total) = 0.81768E+01    rms(broyden)= 0.81708E+01
  rms(prec ) = 0.85350E+01
  weight for this iteration     100.00

 Free energy of the ion-electron system (eV)
  ---------------------------------------------------
  alpha Z        PSCENC =       101.08303108
  Ewald energy   TEWEN  =    103341.51171589
  -Hartree energ DENC   =   -131009.87703302
  -exchange      EXHF   =         0.00000000
  -V(xc)+E(xc)   XCENC  =      1833.83672314
  PAW double counting   =     27520.17136640   -27121.54304893
  entropy T*S    EENTRO =        -0.00000000
  eigenvalues    EBANDS =    -10314.79291698
  atomic energy  EATOM  =     34567.87672263
  Solvation  Ediel_sol  =         0.00000000
  ---------------------------------------------------
  free energy    TOTEN  =     -1081.73343979 eV

  energy without entropy =    -1081.73343979  energy(sigma->0) =    -1081.73343979


--------------------------------------------------------------------------------------------------------




--------------------------------------- Iteration      1(   6)  ---------------------------------------


    POTLOK:  cpu time      0.1705: real time      0.1712
    SETDIJ:  cpu time      0.0073: real time      0.0073
    EDDIAG:  cpu time      0.7599: real time      0.7609
  RMM-DIIS:  cpu time      3.9508: real time      3.9727
    ORTHCH:  cpu time      0.0883: real time      0.0884
       DOS:  cpu time      0.0155: real time      0.0155
    CHARGE:  cpu time      0.1345: real time      0.1347
    MIXING:  cpu time      0.0120: real time      0.0125
    --------------------------------------------
      LOOP:  cpu time      5.1389: real time      5.1631

 eigenvalue-minimisations  :   752
 total energy-change (2. order) : 0.1231275E+03  (-0.4633008E+02)
 number of electron     598.0000075 magnetization 
 augmentation part       44.6656959 magnetization 

 Broyden mixing:
  rms(total) = 0.36271E+01    rms(broyden)= 0.36253E+01
  rms(prec ) = 0.36934E+01
  weight for this iteration     100.00

 eigenvalues of (default mixing * dielectric matrix)
  average eigenvalue GAMMA=   1.2144
  1.2144

 Free energy of the ion-electron system (eV)
  ---------------------------------------------------
  alpha Z        PSCENC =       101.08303108
  Ewald energy   TEWEN  =    103341.51171589
  -Hartree energ DENC   =   -132511.31726128
  -exchange      EXHF   =         0.00000000
  -V(xc)+E(xc)   XCENC  =      1922.83028166
  PAW double counting   =     45973.22228837   -45598.45509902
  entropy T*S    EENTRO =        -0.00000000
  eigenvalues    EBANDS =     -8755.35764649
  atomic energy  EATOM  =     34567.87672263
  Solvation  Ediel_sol  =         0.00000000
  ---------------------------------------------------
  free energy    TOTEN  =      -958.60596716 eV

  energy without entropy =     -958.60596716  energy(sigma->0) =     -958.60596716


--------------------------------------------------------------------------------------------------------




--------------------------------------- Iteration      1(   7)  ---------------------------------------


    POTLOK:  cpu time      0.1696: real time      0.1702
    SETDIJ:  cpu time      0.0072: real time      0.0072
    EDDIAG:  cpu time      0.7585: real time      0.7595
  RMM-DIIS:  cpu time      3.9586: real time      3.9853
    ORTHCH:  cpu time      0.0895: real time      0.0896
       DOS:  cpu time      0.0158: real time      0.0158
    CHARGE:  cpu time      0.1366: real time      0.1367
    MIXING:  cpu time      0.0080: real time      0.0087
    --------------------------------------------
      LOOP:  cpu time      5.1438: real time      5.1730

 eigenvalue-minimisations  :   752
 total energy-change (2. order) :-0.4250281E+00  (-0.7216894E+01)
 number of electron     598.0000072 magnetization 
 augmentation part       42.7916415 magnetization 

 Broyden mixing:
  rms(total) = 0.16563E+01    rms(broyden)= 0.16557E+01
  rms(prec ) = 0.16965E+01
  weight for this iteration     100.00

 eigenvalues of (default mixing * dielectric matrix)
  average eigenvalue GAMMA=   1.4743
  1.4743  1.4743

 Free energy of the ion-electron system (eV)
  ---------------------------------------------------
  alpha Z        PSCENC =       101.08303108
  Ewald energy   TEWEN  =    103341.51171589
  -Hartree energ DENC   =   -132963.61092874
  -exchange      EXHF   =         0.00000000
  -V(xc)+E(xc)   XCENC  =      1945.47172461
  PAW double counting   =     66257.85459039   -65885.17673867
  entropy T*S    EENTRO =        -0.00000000
  eigenvalues    EBANDS =     -8324.04111243
  atomic energy  EATOM  =     34567.87672263
  Solvation  Ediel_sol  =         0.00000000
  ---------------------------------------------------
  free energy    TOTEN  =      -959.03099523 eV

  energy without entropy =     -959.03099523  energy(sigma->0) =     -959.03099523


--------------------------------------------------------------------------------------------------------




--------------------------------------- Iteration      1(   8)  ---------------------------------------


    POTLOK:  cpu time      0.1693: real time      0.1699
    SETDIJ:  cpu time      0.0073: real time      0.0073
    EDDIAG:  cpu time      0.7636: real time      0.7646
  RMM-DIIS:  cpu time      4.1726: real time      4.1914
    ORTHCH:  cpu time      0.0857: real time      0.0858
       DOS:  cpu time      0.0150: real time      0.0150
    CHARGE:  cpu time      0.1378: real time      0.1380
    MIXING:  cpu time      0.0057: real time      0.0057
    --------------------------------------------
      LOOP:  cpu time      5.3570: real time      5.3777

 eigenvalue-minimisations  :   752
 total energy-change (2. order) : 0.1369396E+01  (-0.6643351E+00)
 number of electron     598.0000071 magnetization 
 augmentation part       42.8895630 magnetization 

 Broyden mixing:
  rms(total) = 0.46780E+00    rms(broyden)= 0.46776E+00
  rms(prec ) = 0.49728E+00
  weight for this iteration     100.00

 eigenvalues of (default mixing * dielectric matrix)
  average eigenvalue GAMMA=   1.5727
  2.3735  1.0778  1.2668

 Free energy of the ion-electron system (eV)
  ---------------------------------------------------
  alpha Z        PSCENC =       101.08303108
  Ewald energy   TEWEN  =    103341.51171589
  -Hartree energ DENC   =   -133092.02517902
  -exchange      EXHF   =         0.00000000
  -V(xc)+E(xc)   XCENC  =      1947.07399929
  PAW double counting   =     78269.76294728   -77895.40815959
  entropy T*S    EENTRO =        -0.00000000
  eigenvalues    EBANDS =     -8197.53667651
  atomic energy  EATOM  =     34567.87672263
  Solvation  Ediel_sol  =         0.00000000
  ---------------------------------------------------
  free energy    TOTEN  =      -957.66159896 eV

  energy without entropy =     -957.66159896  energy(sigma->0) =     -957.66159896


--------------------------------------------------------------------------------------------------------




--------------------------------------- Iteration      1(   9)  ---------------------------------------


    POTLOK:  cpu time      0.1696: real time      0.1703
    SETDIJ:  cpu time      0.0069: real time      0.0069
    EDDIAG:  cpu time      0.7610: real time      0.7619
  RMM-DIIS:  cpu time      4.0483: real time      4.0682
    ORTHCH:  cpu time      0.0897: real time      0.0898
       DOS:  cpu time      0.0151: real time      0.0151
    CHARGE:  cpu time      0.1409: real time      0.1410
    MIXING:  cpu time      0.0059: real time      0.0060
    --------------------------------------------
      LOOP:  cpu time      5.2374: real time      5.2592

 eigenvalue-minimisations  :   754
 total energy-change (2. order) : 0.1277266E+00  (-0.2543978E+00)
 number of electron     598.0000071 magnetization 
 augmentation part       43.0043638 magnetization 

 Broyden mixing:
  rms(total) = 0.15916E+00    rms(broyden)= 0.15906E+00
  rms(prec ) = 0.18510E+00
  weight for this iteration     100.00

 eigenvalues of (default mixing * dielectric matrix)
  average eigenvalue GAMMA=   1.6325
  0.9496  1.3979  2.0913  2.0913

 Free energy of the ion-electron system (eV)
  ---------------------------------------------------
  alpha Z        PSCENC =       101.08303108
  Ewald energy   TEWEN  =    103341.51171589
  -Hartree energ DENC   =   -133230.92309909
  -exchange      EXHF   =         0.00000000
  -V(xc)+E(xc)   XCENC  =      1950.53016018
  PAW double counting   =     83336.99819091   -82962.35266437
  entropy T*S    EENTRO =        -0.00000000
  eigenvalues    EBANDS =     -8062.25792960
  atomic energy  EATOM  =     34567.87672263
  Solvation  Ediel_sol  =         0.00000000
  ---------------------------------------------------
  free energy    TOTEN  =      -957.53387237 eV

  energy without entropy =     -957.53387237  energy(sigma->0) =     -957.53387237


--------------------------------------------------------------------------------------------------------




--------------------------------------- Iteration      1(  10)  ---------------------------------------


    POTLOK:  cpu time      0.1692: real time      0.1699
    SETDIJ:  cpu time      0.0071: real time      0.0071
    EDDIAG:  cpu time      0.7472: real time      0.7482
  RMM-DIIS:  cpu time      3.9143: real time      3.9294
    ORTHCH:  cpu time      0.0925: real time      0.0926
       DOS:  cpu time      0.0166: real time      0.0167
    CHARGE:  cpu time      0.1359: real time      0.1361
    MIXING:  cpu time      0.0064: real time      0.0064
    --------------------------------------------
      LOOP:  cpu time      5.0892: real time      5.1063

 eigenvalue-minimisations  :   755
 total energy-change (2. order) :-0.2286989E-01  (-0.1582866E+00)
 number of electron     598.0000071 magnetization 
 augmentation part       42.6641940 magnetization 

 Broyden mixing:
  rms(total) = 0.15779E+00    rms(broyden)= 0.15766E+00
  rms(prec ) = 0.17346E+00
  weight for this iteration     100.00

 eigenvalues of (default mixing * dielectric matrix)
  average eigenvalue GAMMA=   1.6135
  2.3380  2.3380  0.9203  1.2357  1.2357

 Free energy of the ion-electron system (eV)
  ---------------------------------------------------
  alpha Z        PSCENC =       101.08303108
  Ewald energy   TEWEN  =    103341.51171589
  -Hartree energ DENC   =   -133362.96915000
  -exchange      EXHF   =         0.00000000
  -V(xc)+E(xc)   XCENC  =      1954.40342279
  PAW double counting   =     81697.80642543   -81323.95222800
  entropy T*S    EENTRO =        -0.00000000
  eigenvalues    EBANDS =     -7933.31668209
  atomic energy  EATOM  =     34567.87672263
  Solvation  Ediel_sol  =         0.00000000
  ---------------------------------------------------
  free energy    TOTEN  =      -957.55674226 eV

  energy without entropy =     -957.55674226  energy(sigma->0) =     -957.55674226


--------------------------------------------------------------------------------------------------------




--------------------------------------- Iteration      1(  11)  ---------------------------------------


    POTLOK:  cpu time      0.1708: real time      0.1714
    SETDIJ:  cpu time      0.0070: real time      0.0070
    EDDIAG:  cpu time      0.7580: real time      0.7590
  RMM-DIIS:  cpu time      3.9838: real time      4.0061
    ORTHCH:  cpu time      0.0841: real time      0.0842
       DOS:  cpu time      0.0171: real time      0.0171
    CHARGE:  cpu time      0.1347: real time      0.1349
    MIXING:  cpu time      0.0073: real time      0.0073
    --------------------------------------------
      LOOP:  cpu time      5.1628: real time      5.1870

 eigenvalue-minimisations  :   753
 total energy-change (2. order) : 0.5299736E-01  (-0.3005905E-01)
 number of electron     598.0000071 magnetization 
 augmentation part       42.7422451 magnetization 

 Broyden mixing:
  rms(total) = 0.39473E-01    rms(broyden)= 0.39455E-01
  rms(prec ) = 0.58697E-01
  weight for this iteration     100.00

 eigenvalues of (default mixing * dielectric matrix)
  average eigenvalue GAMMA=   1.6706
  2.5710  2.5710  1.5173  1.5173  1.0018  0.8451

 Free energy of the ion-electron system (eV)
  ---------------------------------------------------
  alpha Z        PSCENC =       101.08303108
  Ewald energy   TEWEN  =    103341.51171589
  -Hartree energ DENC   =   -133375.52718634
  -exchange      EXHF   =         0.00000000
  -V(xc)+E(xc)   XCENC  =      1952.76467216
  PAW double counting   =     81314.02280178   -80939.45568155
  entropy T*S    EENTRO =        -0.00000000
  eigenvalues    EBANDS =     -7919.77982055
  atomic energy  EATOM  =     34567.87672263
  Solvation  Ediel_sol  =         0.00000000
  ---------------------------------------------------
  free energy    TOTEN  =      -957.50374490 eV

  energy without entropy =     -957.50374490  energy(sigma->0) =     -957.50374490


--------------------------------------------------------------------------------------------------------




--------------------------------------- Iteration      1(  12)  ---------------------------------------


    POTLOK:  cpu time      0.1707: real time      0.1713
    SETDIJ:  cpu time      0.0068: real time      0.0068
    EDDIAG:  cpu time      0.7565: real time      0.7575
  RMM-DIIS:  cpu time      3.9592: real time      3.9748
    ORTHCH:  cpu time      0.0873: real time      0.0874
       DOS:  cpu time      0.0196: real time      0.0196
    CHARGE:  cpu time      0.1387: real time      0.1388
    MIXING:  cpu time      0.0067: real time      0.0067
    --------------------------------------------
      LOOP:  cpu time      5.1454: real time      5.1630

 eigenvalue-minimisations  :   752
 total energy-change (2. order) :-0.3454634E-01  (-0.2566170E-01)
 number of electron     598.0000071 magnetization 
 augmentation part       42.8697736 magnetization 

 Broyden mixing:
  rms(total) = 0.76784E-01    rms(broyden)= 0.76744E-01
  rms(prec ) = 0.84445E-01
  weight for this iteration     100.00

 eigenvalues of (default mixing * dielectric matrix)
  average eigenvalue GAMMA=   1.6648
  3.1450  2.5375  1.8685  1.0143  1.0143  1.0372  1.0372

 Free energy of the ion-electron system (eV)
  ---------------------------------------------------
  alpha Z        PSCENC =       101.08303108
  Ewald energy   TEWEN  =    103341.51171589
  -Hartree energ DENC   =   -133411.06367933
  -exchange      EXHF   =         0.00000000
  -V(xc)+E(xc)   XCENC  =      1952.01997981
  PAW double counting   =     81048.65929815   -80673.60500898
  entropy T*S    EENTRO =        -0.00000000
  eigenvalues    EBANDS =     -7884.02035049
  atomic energy  EATOM  =     34567.87672263
  Solvation  Ediel_sol  =         0.00000000
  ---------------------------------------------------
  free energy    TOTEN  =      -957.53829124 eV

  energy without entropy =     -957.53829124  energy(sigma->0) =     -957.53829124


--------------------------------------------------------------------------------------------------------




--------------------------------------- Iteration      1(  13)  ---------------------------------------


    POTLOK:  cpu time      0.1698: real time      0.1702
    SETDIJ:  cpu time      0.0067: real time      0.0067
    EDDIAG:  cpu time      0.7553: real time      0.7563
  RMM-DIIS:  cpu time      3.8807: real time      3.9015
    ORTHCH:  cpu time      0.0833: real time      0.0834
       DOS:  cpu time      0.0152: real time      0.0152
    CHARGE:  cpu time      0.1368: real time      0.1370
    MIXING:  cpu time      0.0069: real time      0.0069
    --------------------------------------------
      LOOP:  cpu time      5.0548: real time      5.0772

 eigenvalue-minimisations  :   752
 total energy-change (2. order) :-0.8316824E-02  (-0.1405501E-01)
 number of electron     598.0000071 magnetization 
 augmentation part       42.7655267 magnetization 

 Broyden mixing:
  rms(total) = 0.23144E-01    rms(broyden)= 0.23090E-01
  rms(prec ) = 0.28932E-01
  weight for this iteration     100.00

 eigenvalues of (default mixing * dielectric matrix)
  average eigenvalue GAMMA=   1.8026
  3.7280  2.5808  2.5808  1.3747  0.9286  0.9286  1.1499  1.1499

 Free energy of the ion-electron system (eV)
  ---------------------------------------------------
  alpha Z        PSCENC =       101.08303108
  Ewald energy   TEWEN  =    103341.51171589
  -Hartree energ DENC   =   -133465.00848781
  -exchange      EXHF   =         0.00000000
  -V(xc)+E(xc)   XCENC  =      1953.42766814
  PAW double counting   =     81055.37556579   -80680.59948595
  entropy T*S    EENTRO =        -0.00000000
  eigenvalues    EBANDS =     -7831.21333783
  atomic energy  EATOM  =     34567.87672263
  Solvation  Ediel_sol  =         0.00000000
  ---------------------------------------------------
  free energy    TOTEN  =      -957.54660806 eV

  energy without entropy =     -957.54660806  energy(sigma->0) =     -957.54660806


--------------------------------------------------------------------------------------------------------




--------------------------------------- Iteration      1(  14)  ---------------------------------------


    POTLOK:  cpu time      0.1686: real time      0.1689
    SETDIJ:  cpu time      0.0068: real time      0.0068
    EDDIAG:  cpu time      0.7567: real time      0.7578
  RMM-DIIS:  cpu time      4.3356: real time      4.3583
    ORTHCH:  cpu time      0.0905: real time      0.0906
       DOS:  cpu time      0.0170: real time      0.0170
    CHARGE:  cpu time      0.1352: real time      0.1354
    MIXING:  cpu time      0.0076: real time      0.0076
    --------------------------------------------
      LOOP:  cpu time      5.5179: real time      5.5422

 eigenvalue-minimisations  :   836
 total energy-change (2. order) :-0.2605074E-01  (-0.3483386E-02)
 number of electron     598.0000071 magnetization 
 augmentation part       42.7460136 magnetization 

 Broyden mixing:
  rms(total) = 0.21925E-01    rms(broyden)= 0.21911E-01
  rms(prec ) = 0.24697E-01
  weight for this iteration     100.00

 eigenvalues of (default mixing * dielectric matrix)
  average eigenvalue GAMMA=   1.8311
  4.5455  2.5430  2.5430  1.5743  1.1765  1.1765  1.1343  0.8934  0.8934

 Free energy of the ion-electron system (eV)
  ---------------------------------------------------
  alpha Z        PSCENC =       101.08303108
  Ewald energy   TEWEN  =    103341.51171589
  -Hartree energ DENC   =   -133486.82821135
  -exchange      EXHF   =         0.00000000
  -V(xc)+E(xc)   XCENC  =      1953.34882330
  PAW double counting   =     81246.55342019   -80871.71240088
  entropy T*S    EENTRO =        -0.00000000
  eigenvalues    EBANDS =     -7809.40575967
  atomic energy  EATOM  =     34567.87672263
  Solvation  Ediel_sol  =         0.00000000
  ---------------------------------------------------
  free energy    TOTEN  =      -957.57265881 eV

  energy without entropy =     -957.57265881  energy(sigma->0) =     -957.57265881


--------------------------------------------------------------------------------------------------------




--------------------------------------- Iteration      1(  15)  ---------------------------------------


    POTLOK:  cpu time      0.1738: real time      0.1807
    SETDIJ:  cpu time      0.0068: real time      0.0068
    EDDIAG:  cpu time      0.7609: real time      0.7619
  RMM-DIIS:  cpu time      4.0079: real time      4.0255
    ORTHCH:  cpu time      0.0886: real time      0.0888
       DOS:  cpu time      0.0154: real time      0.0154
    CHARGE:  cpu time      0.1335: real time      0.1337
    MIXING:  cpu time      0.0077: real time      0.0078
    --------------------------------------------
      LOOP:  cpu time      5.1946: real time      5.2206

 eigenvalue-minimisations  :   752
 total energy-change (2. order) :-0.1164756E-01  (-0.1121684E-02)
 number of electron     598.0000071 magnetization 
 augmentation part       42.7742868 magnetization 

 Broyden mixing:
  rms(total) = 0.75400E-02    rms(broyden)= 0.75237E-02
  rms(prec ) = 0.97474E-02
  weight for this iteration     100.00

 eigenvalues of (default mixing * dielectric matrix)
  average eigenvalue GAMMA=   1.8974
  5.4466  2.7152  2.2592  2.2592  1.1262  1.1262  1.2591  1.0124  0.8997  0.8708

 Free energy of the ion-electron system (eV)
  ---------------------------------------------------
  alpha Z        PSCENC =       101.08303108
  Ewald energy   TEWEN  =    103341.51171589
  -Hartree energ DENC   =   -133489.45662347
  -exchange      EXHF   =         0.00000000
  -V(xc)+E(xc)   XCENC  =      1952.91717715
  PAW double counting   =     81174.94577620   -80799.99700588
  entropy T*S    EENTRO =        -0.00000000
  eigenvalues    EBANDS =     -7806.46509996
  atomic energy  EATOM  =     34567.87672263
  Solvation  Ediel_sol  =         0.00000000
  ---------------------------------------------------
  free energy    TOTEN  =      -957.58430637 eV

  energy without entropy =     -957.58430637  energy(sigma->0) =     -957.58430637


--------------------------------------------------------------------------------------------------------




--------------------------------------- Iteration      1(  16)  ---------------------------------------


    POTLOK:  cpu time      0.1697: real time      0.1705
    SETDIJ:  cpu time      0.0068: real time      0.0068
    EDDIAG:  cpu time      0.7526: real time      0.7540
  RMM-DIIS:  cpu time      3.8867: real time      3.9092
    ORTHCH:  cpu time      0.0913: real time      0.0914
       DOS:  cpu time      0.0151: real time      0.0151
    CHARGE:  cpu time      0.1372: real time      0.1373
    MIXING:  cpu time      0.0076: real time      0.0077
    --------------------------------------------
      LOOP:  cpu time      5.0671: real time      5.0920

 eigenvalue-minimisations  :   717
 total energy-change (2. order) :-0.8997742E-02  (-0.1869307E-03)
 number of electron     598.0000071 magnetization 
 augmentation part       42.7688802 magnetization 

 Broyden mixing:
  rms(total) = 0.30840E-02    rms(broyden)= 0.30819E-02
  rms(prec ) = 0.49345E-02
  weight for this iteration     100.00

 eigenvalues of (default mixing * dielectric matrix)
  average eigenvalue GAMMA=   1.9804
  6.3455  2.9327  2.4031  1.9230  1.9230  1.1601  1.1601  1.0656  1.0656  0.9029
  0.9029

 Free energy of the ion-electron system (eV)
  ---------------------------------------------------
  alpha Z        PSCENC =       101.08303108
  Ewald energy   TEWEN  =    103341.51171589
  -Hartree energ DENC   =   -133497.91177365
[...]
   0.746E+02 -.570E+03 0.336E+03   -.110E+03 0.587E+03 -.352E+03   0.356E+02 -.180E+02 0.164E+02   0.327E-02 -.829E-03 0.932E-03
   -.432E+03 0.223E+03 0.205E+03   0.457E+03 -.245E+03 -.184E+03   -.250E+02 0.223E+02 -.203E+02   -.857E-03 0.160E-02 -.185E-02
   -.412E+03 -.331E+03 0.100E+03   0.436E+03 0.351E+03 -.740E+02   -.249E+02 -.211E+02 -.268E+02   0.946E-03 -.364E-03 0.832E-03
   -.556E+03 -.288E+03 0.212E+03   0.567E+03 0.309E+03 -.232E+03   -.107E+02 -.213E+02 0.191E+02   0.150E-02 0.136E-02 -.608E-03
   0.615E+03 -.265E+03 -.262E+03   -.638E+03 0.271E+03 0.231E+03   0.220E+02 -.594E+01 0.314E+02   0.337E-03 0.137E-02 -.307E-03
   0.397E+03 -.269E+03 -.208E+03   -.407E+03 0.272E+03 0.204E+03   0.104E+02 -.223E+01 0.321E+01   -.824E-03 -.390E-04 0.225E-03
   -.269E+03 -.355E+03 -.261E+03   0.267E+03 0.371E+03 0.268E+03   0.183E+01 -.162E+02 -.554E+01   -.322E-03 0.111E-03 0.120E-02
   -.217E+03 -.208E+03 -.388E+03   0.220E+03 0.198E+03 0.391E+03   -.228E+01 0.871E+01 -.459E+01   -.553E-03 0.236E-03 -.142E-03
   0.217E+03 -.430E+03 -.320E+03   -.219E+03 0.449E+03 0.318E+03   0.206E+01 -.192E+02 0.196E+01   0.116E-02 0.108E-02 0.937E-04
   0.656E+03 0.209E+03 -.236E+03   -.683E+03 -.209E+03 0.206E+03   0.277E+02 0.147E+00 0.302E+02   0.985E-04 -.218E-02 -.344E-05
   0.435E+03 0.129E+03 -.107E+03   -.443E+03 -.115E+03 0.101E+03   0.829E+01 -.143E+02 0.554E+01   0.796E-03 0.702E-03 0.439E-03
   -.238E+03 0.196E+03 -.142E+03   0.233E+03 -.211E+03 0.144E+03   0.486E+01 0.155E+02 -.263E+01   0.133E-03 -.619E-03 0.100E-02
   -.234E+03 0.536E+02 -.447E+03   0.241E+03 -.401E+02 0.460E+03   -.591E+01 -.134E+02 -.138E+02   0.187E-04 0.775E-03 0.945E-03
   0.263E+03 0.296E+03 -.282E+03   -.265E+03 -.314E+03 0.274E+03   0.981E+00 0.181E+02 0.721E+01   -.954E-04 -.108E-02 0.769E-03
   0.337E+03 -.415E+02 -.333E+03   -.328E+03 0.447E+02 0.343E+03   -.944E+01 -.167E+01 -.100E+02   0.107E-02 0.212E-03 -.597E-03
   -.487E+03 -.277E+02 -.230E+03   0.502E+03 0.237E+02 0.220E+03   -.151E+02 0.187E+01 0.898E+01   -.346E-03 0.685E-04 0.884E-03
   -.141E+03 -.492E+03 -.386E+03   0.182E+03 0.498E+03 0.385E+03   -.412E+02 -.726E+01 0.842E+00   -.395E-03 0.831E-03 -.697E-03
   0.224E+02 -.160E+03 -.533E+03   -.150E+02 0.163E+03 0.544E+03   -.785E+01 -.353E+01 -.104E+02   0.547E-03 -.174E-04 -.133E-04
   0.960E+02 0.119E+03 -.551E+03   -.951E+02 -.127E+03 0.564E+03   -.119E+01 0.783E+01 -.124E+02   0.320E-03 0.622E-03 0.758E-03
   0.429E+03 0.440E+03 -.228E+03   -.452E+03 -.461E+03 0.218E+03   0.233E+02 0.201E+02 0.931E+01   -.138E-02 -.358E-03 0.170E-02
   -.273E+02 0.334E+03 -.170E+03   0.870E+01 -.330E+03 0.178E+03   0.188E+02 -.387E+01 -.699E+01   -.864E-03 -.440E-03 0.858E-03
   -.128E+03 0.365E+03 -.438E+03   0.143E+03 -.367E+03 0.449E+03   -.134E+02 0.195E+01 -.114E+02   -.611E-03 0.904E-03 0.629E-03
   -.239E+03 0.469E+03 -.234E+03   0.211E+03 -.494E+03 0.225E+03   0.284E+02 0.259E+02 0.917E+01   -.135E-02 0.858E-03 0.119E-04
   0.203E+02 0.321E+03 -.505E+03   -.166E+02 -.323E+03 0.522E+03   -.339E+01 0.183E+01 -.166E+02   -.168E-02 -.775E-03 0.153E-02
   -.597E+03 -.244E+03 -.333E+03   0.629E+03 0.219E+03 0.333E+03   -.334E+02 0.247E+02 -.425E+00   -.230E-03 0.793E-03 -.395E-03
   -.602E+03 0.170E+03 -.287E+03   0.602E+03 -.202E+03 0.269E+03   -.244E+00 0.328E+02 0.181E+02   -.392E-03 0.340E-03 -.362E-03
   -.579E+03 0.215E+03 -.180E+03   0.607E+03 -.232E+03 0.165E+03   -.294E+02 0.156E+02 0.152E+02   0.468E-03 0.564E-03 0.359E-03
   -.438E+03 -.634E+02 -.184E+02   0.452E+03 0.645E+02 0.222E+02   -.143E+02 -.153E+01 -.427E+01   -.143E-03 0.676E-04 0.167E-02
 -----------------------------------------------------------------------------------------------
   0.120E+03 -.156E+03 -.210E+03   0.284E-12 0.824E-12 0.296E-11   -.120E+03 0.156E+03 0.210E+03   -.162E-01 -.481E-02 0.150E-01
 
 
 POSITION                                       TOTAL-FORCE (eV/Angst)
 -----------------------------------------------------------------------------------
      9.23085     14.03862     12.65569        -0.500782      0.504351      0.959268
     12.41083     14.10813     12.77040        -1.192019      0.125164      0.138763
     10.71448     14.04864      3.98726        -1.048490     -1.452852     -2.263647
      9.17294      9.58540     12.61903        -0.310870      0.554791     -0.951389
     12.29308      9.39862     12.80119         1.143901     -0.621635      0.651775
     10.67152      9.26478      4.24413        -0.863821     -1.892561     -0.342613
     11.08806     12.36766      9.00336         2.540835     -0.079694      1.903159
     10.60411     11.72587      6.11751        -2.039642     -0.743986     -2.410672
      7.45349     12.10851      5.89517        -0.738821      1.196751     -0.544821
      6.08355     12.62971      8.68767         2.231318     -0.200632      0.996530
      8.43749     11.84345     10.60196        -0.875705     -2.186016     -0.518295
     10.88405     15.54545      8.95443         0.762512     -0.256083      1.629677
     10.01345     16.23975      6.07026        -1.727114      0.758702     -0.051582
      5.99930     15.79445      9.24105         1.156433      0.717435     -0.980827
      8.56772     16.43128     10.83725        -0.355108     -0.549605     -0.195630
      9.02011      6.39854     12.56119         0.298938     -0.534635      1.063027
     12.13493      6.27552     12.71637        -0.167933      1.618642      0.037015
     13.19634      3.71508     11.52303        -0.172138     -0.791697     -2.316695
     12.92987     19.64247     11.04037        -0.398745     -0.303464      1.232318
     13.14492     16.55757     10.90971        -0.501337     -1.462341      0.172781
     13.46069     11.69302     11.06417         0.443652     -0.316546     -1.339551
      8.47002     13.54901     15.73206         0.659615     -1.258435      0.357545
     10.88684     14.11152     17.64998        -0.163168      0.931505     -0.310946
      8.46381     10.35702     15.61835        -0.193136     -0.706071      0.076914
     10.77730      9.52054     17.55107         0.202134     -0.266743      0.127323
      9.82704     11.79220     19.55718        -0.146650     -0.263034     -0.461455
     11.08581      6.36176     17.67746        -2.139670      1.548040      0.180606
     13.29340     13.37685     15.70454         0.258492      1.953127      0.205586
     13.19003     10.25557     15.69785        -0.059751      0.791403      0.968813
     13.28446      5.73890     15.53881         0.827271      0.708447      0.562474
     13.54176      3.28003     13.61050        -0.351413     -0.457602      0.303519
      7.64863     14.35210      5.53285        -0.226801     -0.116864     -0.255429
      8.52619     13.58493      3.59035         0.127556      0.146872     -0.227123
      6.21455     10.85075      4.41880        -0.473136      0.053027     -0.176905
      8.47196      9.95817      3.97411         0.040624     -0.016895      0.056647
      7.95544     16.22710      7.00484        -0.174336     -0.093592     -0.089113
     12.73800     21.36949     12.55971         0.004994     -0.575157     -0.193263
     10.76662      6.88667      4.33585        -0.012343      0.415573     -0.162119
     11.10717      3.50268     10.59714         0.008442      0.024965      0.015142
      7.32097      5.27143     11.69446        -0.014944     -0.012590     -0.060864
     10.83200     19.31435     10.08076         0.051247     -0.152861      0.231696
     10.80099     18.26202      6.21411         0.292561      0.578403      0.068324
      8.87320     18.37778     12.02774        -0.009036     -0.331486     -0.367919
      4.19487     11.53664      9.23443         0.036606      0.032651     -0.037326
     14.65885      3.75618      9.80040        -0.030930      0.159956     -0.366792
     14.38065     20.12909      9.45483         0.238564      0.156022      0.065697
     15.19162     15.51976     10.42308         0.381229     -0.679587     -0.005855
     11.94172     14.90675      2.32199         0.033510     -0.114940      0.011858
     11.93009     10.12882      2.55550        -0.086834      0.232080     -0.112497
     16.74988     13.98835      9.60309         0.131467     -0.113230     -0.024954
     17.18510     15.08683     10.75123         0.161298     -0.127676      0.040526
      6.70030     14.07511     17.05152         0.125580     -0.066400     -0.371322
      6.86976      9.54225     16.96603        -0.083250      0.064887     -0.380837
     10.63036     16.12261     18.48831        -0.097437      0.444976      0.199039
      8.72864      5.98445     14.91310         0.184775      0.160763     -0.440096
     14.71558      4.05966     15.53395        -0.258406     -0.102478      0.059691
     14.62178     14.99995     16.40756         0.240114     -0.052046      0.018551
     15.20490      9.85421     16.56490         0.170424     -0.054667      0.110422
     14.66056      7.53222     15.95213        -0.021953      0.381221     -0.118441
      6.50741     16.66142      8.05680        -0.271861     -0.504220      0.432256
      4.61336     16.23045      9.48865        -0.195756     -0.345082      0.243810
      8.34780     11.92105     19.41867        -0.019855      0.105061     -0.215900
     10.06345     11.53616     20.99483         0.420082      0.434585      0.077825
     10.69535      5.73007     18.97610         0.530813     -0.225727     -0.239840
      9.98408      6.16037     16.65847         0.117371     -0.173468      0.206359
     15.69408     13.55447     12.27618        -0.256874     -0.242388      0.183113
     17.44121     13.36054     12.15348        -0.127295     -0.282327      0.027589
     16.50884     11.13076     11.75696        -0.102474     -0.914940      1.108264
     17.19693     11.78148     10.39130         2.639439     -0.481197     -1.945621
     15.12856     10.67534      9.50531         0.116980      0.163464      0.467334
     15.03210     12.40170      9.39436        -0.052407      0.851392     -0.840544
     16.49301     13.27472     11.58799         0.568021      0.727611     -0.391648
     16.38158     11.86126     10.99996        -2.700235      1.329522     -0.064849
     15.10439     11.60915     10.10761        -0.017187     -0.168602      1.950998
     16.51418     14.35041     10.52726        -0.469314     -0.185760      0.308800
     13.11080      2.79445     12.86336         0.418170      0.625689      0.317650
     10.79672     13.70287     12.59584         1.432650      0.280545      0.139509
     11.98847     14.14998      2.93111        -0.353252      0.039500      0.491916
      9.32728     13.72677      3.01755         1.454033      0.356064      1.563055
     10.80281      9.81779     12.47770        -2.178063      0.396708      0.084363
     11.87684      9.36590      3.14283         0.135392     -0.321747      0.072458
      9.22556      9.57248      3.48013         0.715658     -0.024622      0.286317
      7.32612     13.55371      5.01755         0.101811     -0.795991      1.013526
      7.07429     10.90223      4.84148         0.372345     -0.075485      0.378712
     10.56518     15.42936      4.80126         0.042828      0.814467      0.257783
     11.03285     12.83377      5.03254         0.373501      0.807653     -0.411273
     10.92623     10.27178      5.49365         0.079877     -0.108349      0.535937
     12.33790     11.64865      9.88510        -1.716703      0.755795     -1.001546
     11.33666     11.92308      7.48063         0.838109      0.232038      1.410200
      8.96480     11.87017      6.33841         1.246191     -0.261683      0.449227
      6.50821     12.10076      7.24060         0.377348     -0.147553     -1.628927
      7.03396     11.80187      9.77385        -0.281596      0.989014     -0.360690
      9.67101     11.91489      9.56186        -0.476444     -0.144835     -0.128023
     11.98311     16.45124      9.75098        -0.575082     -0.385006     -0.569086
     10.83463     15.83213      7.39594         0.772026      0.243389     -0.936833
      8.40888     15.77516      6.26295         0.587749      0.106923     -0.117863
      6.96453     16.23020     10.50286         0.158496     -0.097719      0.102689
      9.38787     15.89985      9.49701        -0.685278      0.351839      0.940432
     11.26018     13.97639      9.21985        -0.205873      0.168511     -0.282619
      6.24454     14.23491      8.80523         0.127509      0.788081      0.151741
     13.27645     10.37904     11.98873         0.349336     -0.604766      0.369164
     12.74848     15.55689     12.18162         0.057209      0.672768     -0.769161
      8.44713     10.38860     11.35441         0.711643     -0.591236      0.930097
      8.48211     12.98550     11.69531        -0.304802      1.020690      0.363222
      8.92658     15.58457     12.19021         0.095440     -0.374368     -0.147933
      4.56489     12.39761      8.99160        -2.512122     -0.687757      0.512258
     10.60511      6.04217     12.30204        -1.344817     -0.177344     -0.159344
     12.02952      3.26239     10.40846         0.328626      0.238775      0.687995
     11.64791     19.83347      9.99835         0.810610      0.131138     -0.003970
     13.06280      5.33213     11.83012         0.707257     -0.592584      0.021096
     12.67566     20.39106     12.50969         0.106615      0.062669     -0.517834
      8.15574      5.66527     11.39611        -0.082216     -0.146005     -0.160642
     10.70491      7.68540      4.88476         0.097374      1.525969     -0.159984
      8.80201      8.00086     12.51280         0.169218      1.066152      0.056741
     12.50213      7.84442     12.42394         0.426204     -0.339623     -0.317051
     13.09250     18.02626     11.47200        -0.239807      2.957951      0.269630
      8.91377     17.99510     11.12904         0.196086      0.515457      0.007859
      9.96595     17.90121      5.88879         0.217594     -1.262352     -0.006532
     14.60420      3.40241     10.69333        -0.324419      0.079804      1.064655
     14.31268     20.31516     10.41054        -0.811830     -0.505181     -0.328816
     14.57851     16.28250     10.27625         0.255436      0.181566     -0.348593
      6.96049     13.99055     16.11421        -0.508441      0.280440      0.558789
      8.61842     13.85452     14.16481         0.414335      0.371130     -0.816335
     12.78186     14.12994     14.33590         0.133162     -0.332534      0.880285
     12.11427     13.54747     16.81543         1.138679     -0.502984     -0.626413
      9.59633     14.31091     16.65493        -0.442920     -0.093329     -0.055365
      6.93612      9.80813     16.02526         0.966364      0.154953      0.174915
      8.62348     10.27147     14.00095         0.177762     -0.743844     -0.264011
     12.62400      9.51311     14.41465        -0.731284      0.005606     -0.960592
     12.12831     10.20227     16.95934         0.800634      0.003865     -0.792758
      9.62099      9.47311     16.42174        -1.107665      0.353043     -0.911367
      8.70294     11.90714     15.96161        -0.063764      1.534091      0.507762
     13.60060     11.84055     15.47780         0.094935     -2.103626     -0.287735
     11.38314     15.58515     18.21143        -0.297336     -0.504112     -0.107350
     10.55335     13.09571     18.84711        -0.457462     -0.694846      1.130438
     10.33472     10.42145     18.81120        -0.230290      0.148071      0.373562
      8.45341      5.80322     13.99627        -0.008666     -0.089968     -0.291011
     12.25894      6.07771     14.32136         0.216040     -0.383330      0.703117
     12.45975      5.99092     16.96511         1.583578     -0.799272     -0.903074
     13.75916      4.15438     15.34408         0.352453      0.382490      0.042290
     11.03327      7.99368     18.02900         0.312252     -0.526256      0.090658
     14.74941     14.05762     16.18907        -1.133164     -0.215024     -0.159268
     14.55605      9.39061     16.01287         0.261305      0.153949      0.399495
     14.69513      6.63821     15.55877        -1.103394     -1.170070     -0.050551
     13.27472     12.98188     12.03912         0.541952     -0.420086     -0.452121
 -----------------------------------------------------------------------------------
    total drift:                                0.076921     -0.033114     -0.021472


--------------------------------------------------------------------------------------------------------



  FREE ENERGIE OF THE ION-ELECTRON SYSTEM (eV)
  ---------------------------------------------------
  free  energy   TOTEN  =      -954.79447779 eV

  energy  without entropy=     -954.79447779  energy(sigma->0) =     -954.79447779
 
 d Force =-0.1234487E+00[-0.325E+00, 0.784E-01]  d Energy =-0.1241293E+00 0.681E-03
 d Force = 0.5707510E+01[ 0.543E+01, 0.599E+01]  d Ewald  = 0.5708713E+01-0.120E-02


--------------------------------------------------------------------------------------------------------


    POTLOK:  cpu time      0.1721: real time      0.1732


--------------------------------------------------------------------------------------------------------


 stress matrix after NEB project (eV)
      0.00000      0.00000      0.00000
      0.00000      0.00000      0.00000
      0.00000      0.00000      0.00000
  FORCES: max atom, RMS     3.314156    1.271405
  FORCE total and by dimension   15.309744    2.957951
  Stress total and by dimension    0.000000    0.000000
           RANDOM_SEED =         413800587              870                0
   IONSTEP:  cpu time      0.0005: real time      0.0020

  ENERGY OF THE ELECTRON-ION-THERMOSTAT SYSTEM (eV)
  ---------------------------------------------------
% ion-electron   TOTEN  =      -954.794478  see above
  kinetic energy EKIN   =         2.848636
  kin. lattice  EKIN_LAT=         0.000000  (temperature  151.99 K)
  nose potential ES     =        -0.005386
  nose kinetic   EPS    =         0.002127
  ---------------------------------------------------
  total energy   ETOTAL =      -951.949101 eV

  maximum distance moved by ions :      0.15E-02


 mean value of Nose-termostat <S>:    -0.000 mean value of <T> :   219.868
 mean temperature <T/S>/<1/S>  :   299.979

 Prediction of Wavefunctions ALPHA= 1.504 BETA=-0.669
    WAVPRE:  cpu time      0.4163: real time      0.4328
    FEWALD:  cpu time      0.0115: real time      0.0115

 real space projection operators:
  total allocation   :      10908.72 KBytes
  max/ min on nodes  :        698.09        660.41

    ORTHCH:  cpu time      0.4198: real time      0.4203
    POTLOK:  cpu time      0.1890: real time      0.1898
    EDDIAG:  cpu time      0.7910: real time      0.7918
     LOOP+:  cpu time     48.5096: real time     48.7233
    4ORBIT:  cpu time      0.0000: real time      0.0000

 total amount of memory used by VASP MPI-rank0    66764. kBytes
=======================================================================

   base      :      30000. kBytes
   nonlr-proj:        843. kBytes
   fftplans  :       6316. kBytes
   grid      :      13900. kBytes
   one-center:         15. kBytes
   wavefun   :      15690. kBytes
 
  
  
 General timing and accounting informations for this job:
 ========================================================
  
                  Total CPU time used (sec):      531.396
                            User time (sec):      397.688
                          System time (sec):      133.708
                         Elapsed time (sec):      541.742
  
                   Maximum memory used (kb):      851512.
                   Average memory used (kb):          N/A
  
                          Minor page faults:      6768340
                          Major page faults:          223
                 Voluntary context switches:        46576
