       N       E                     dE             d eps       ncg     rms          rms(c)
DAV:   1     0.664365720858E+04    0.66437E+04   -0.17155E+05 11232   0.159E+03
DAV:   2     0.150448984909E+04   -0.51392E+04   -0.46806E+04 11520   0.395E+02
DAV:   3    -0.493065559076E+03   -0.19976E+04   -0.18517E+04 15855   0.220E+02
DAV:   4    -0.833182664834E+03   -0.34012E+03   -0.33694E+03 18768   0.998E+01
DAV:   5    -0.848065216201E+03   -0.14883E+02   -0.14823E+02 18768   0.246E+01    0.137E+02
RMM:   6    -0.604139412332E+03    0.24393E+03   -0.11581E+03 15279   0.537E+01    0.278E+01
RMM:   7    -0.652832582691E+03   -0.48693E+02   -0.29795E+02 16105   0.241E+01    0.374E+01
RMM:   8    -0.658869444072E+03   -0.60369E+01   -0.40988E+01 17002   0.880E+00    0.308E+01
RMM:   9    -0.682283132892E+03   -0.23414E+02   -0.32051E+02 18804   0.312E+01    0.523E+01
RMM:  10    -0.699383157881E+03   -0.17100E+02   -0.36860E+01 15407   0.998E+00    0.455E+01
RMM:  11    -0.670221328577E+03    0.29162E+02   -0.10655E+02 17809   0.162E+01    0.112E+01
RMM:  12    -0.669463765490E+03    0.75756E+00   -0.12577E+01 15626   0.547E+00    0.464E+00
RMM:  13    -0.669825601196E+03   -0.36184E+00   -0.42470E+00 16810   0.260E+00    0.386E+00
RMM:  14    -0.669884621872E+03   -0.59021E-01   -0.61917E-01 16917   0.130E+00    0.270E+00
RMM:  15    -0.669805902631E+03    0.78719E-01   -0.82905E-01 14734   0.175E+00    0.303E+00
RMM:  16    -0.669822584273E+03   -0.16682E-01   -0.28341E-01 15820   0.850E-01    0.115E+00
RMM:  17    -0.669815436501E+03    0.71478E-02   -0.32767E-02 18120   0.278E-01    0.131E+00
RMM:  18    -0.669798606008E+03    0.16830E-01   -0.46948E-02 15078   0.411E-01    0.508E-01
RMM:  19    -0.669799063546E+03   -0.45754E-03   -0.58540E-02 15959   0.317E-01    0.815E-02
RMM:  20    -0.669799396876E+03   -0.33333E-03   -0.58535E-03 13568   0.177E-01    0.152E-01
RMM:  21    -0.669799668898E+03   -0.27202E-03   -0.33555E-03 15902   0.109E-01    0.411E-02
RMM:  22    -0.669799771603E+03   -0.10270E-03   -0.14664E-03 13602   0.904E-02    0.120E-01
RMM:  23    -0.669799868438E+03   -0.96835E-04   -0.13435E-03 12611   0.641E-02    0.635E-02
RMM:  24    -0.669799940259E+03   -0.71822E-04   -0.10446E-03 12473   0.569E-02    0.484E-02
RMM:  25    -0.669799960652E+03   -0.20393E-04   -0.51776E-04 10478   0.526E-02
      1 T=   325. E= -.66998500E+03 F= -.66979996E+03 E0= -.66979996E+03  EK= 0.36976E+01 SP= -.39E+01 SK= 0.42E-02 mag=      0.001
       N       E                     dE             d eps       ncg     rms          rms(c)
DAV:   1    -0.669783607888E+03    0.16332E-01   -0.15090E+01 14640   0.696E+00    0.842E-01
RMM:   2    -0.669823857105E+03   -0.40249E-01   -0.46154E-01 15327   0.179E+00    0.983E-01
RMM:   3    -0.669829021477E+03   -0.51644E-02   -0.62629E-02 15640   0.542E-01    0.587E-01
RMM:   4    -0.669829481451E+03   -0.45997E-03   -0.20040E-02 15399   0.299E-01    0.577E-01
RMM:   5    -0.669827623572E+03    0.18579E-02   -0.14966E-02 14972   0.277E-01    0.338E-01
RMM:   6    -0.669827839038E+03   -0.21547E-03   -0.35603E-03 14878   0.114E-01    0.176E-01
RMM:   7    -0.669827915723E+03   -0.76685E-04   -0.15775E-03 13897   0.948E-02    0.115E-01
RMM:   8    -0.669827904144E+03    0.11579E-04   -0.53555E-04 10592   0.652E-02
      2 T=   324. E= -.66998690E+03 F= -.66982790E+03 E0= -.66982790E+03  EK= 0.36906E+01 SP= -.39E+01 SK= 0.68E-02 mag=     -0.001
       N       E                     dE             d eps       ncg     rms          rms(c)
DAV:   1    -0.669840072713E+03   -0.12157E-01   -0.22761E-01 20304   0.248E+00    0.216E-01
RMM:   2    -0.669846745924E+03   -0.66732E-02   -0.74902E-02 15263   0.574E-01    0.163E-01
RMM:   3    -0.669847501604E+03   -0.75568E-03   -0.84213E-03 15573   0.169E-01    0.139E-01
RMM:   4    -0.669847451786E+03    0.49819E-04   -0.21578E-03 15005   0.861E-02    0.134E-01
RMM:   5    -0.669847424514E+03    0.27271E-04   -0.71749E-04 11191   0.674E-02
      3 T=   322. E= -.66998838E+03 F= -.66984742E+03 E0= -.66984742E+03  EK= 0.36682E+01 SP= -.38E+01 SK= 0.98E-02 mag=      0.001
       N       E                     dE             d eps       ncg     rms          rms(c)
DAV:   1    -0.669854172124E+03   -0.67203E-02   -0.27279E-01 20016   0.271E+00    0.380E-01
RMM:   2    -0.669859638058E+03   -0.54659E-02   -0.61477E-02 15147   0.570E-01    0.449E-01
RMM:   3    -0.669857977151E+03    0.16609E-02   -0.13557E-02 15113   0.230E-01    0.125E-01
RMM:   4    -0.669858360635E+03   -0.38348E-03   -0.54638E-03 14432   0.103E-01    0.112E-01
RMM:   5    -0.669858426298E+03   -0.65664E-04   -0.79765E-04 11116   0.852E-02
      4 T=   319. E= -.66998751E+03 F= -.66985843E+03 E0= -.66985843E+03  EK= 0.36329E+01 SP= -.38E+01 SK= 0.13E-01 mag=      0.000
       N       E                     dE             d eps       ncg     rms          rms(c)
DAV:   1    -0.669858067422E+03    0.29321E-03   -0.10454E-01 18468   0.214E+00    0.131E-01
RMM:   2    -0.669861101767E+03   -0.30343E-02   -0.30347E-02 15245   0.418E-01    0.235E-01
RMM:   3    -0.669861269682E+03   -0.16791E-03   -0.60319E-03 16519   0.146E-01    0.499E-02
RMM:   4    -0.669861380795E+03   -0.11111E-03   -0.14958E-03 13871   0.671E-02    0.686E-02
RMM:   5    -0.669861407638E+03   -0.26843E-04   -0.62093E-04 11644   0.853E-02
      5 T=   315. E= -.66998621E+03 F= -.66986141E+03 E0= -.66986141E+03  EK= 0.35847E+01 SP= -.37E+01 SK= 0.16E-01 mag=      0.001
       N       E                     dE             d eps       ncg     rms          rms(c)
DAV:   1    -0.669855307245E+03    0.60735E-02   -0.50158E-02 19440   0.197E+00    0.105E-01
RMM:   2    -0.669857026700E+03   -0.17195E-02   -0.17179E-02 15108   0.341E-01    0.145E-01
RMM:   3    -0.669857345955E+03   -0.31925E-03   -0.37978E-03 16019   0.985E-02    0.107E-01
RMM:   4    -0.669857388693E+03   -0.42738E-04   -0.79064E-04 11574   0.688E-02
      6 T=   310. E= -.66998539E+03 F= -.66985739E+03 E0= -.66985739E+03  EK= 0.35251E+01 SP= -.37E+01 SK= 0.18E-01 mag=     -0.001
       N       E                     dE             d eps       ncg     rms          rms(c)
DAV:   1    -0.669846313787E+03    0.11032E-01   -0.42207E-02 19032   0.194E+00    0.171E-01
RMM:   2    -0.669847647288E+03   -0.13335E-02   -0.14531E-02 15194   0.279E-01    0.502E-02
RMM:   3    -0.669847908459E+03   -0.26117E-03   -0.26074E-03 14340   0.898E-02    0.532E-02
RMM:   4    -0.669848043860E+03   -0.13540E-03   -0.72389E-04 11533   0.862E-02    0.722E-02
RMM:   5    -0.669847985576E+03    0.58284E-04   -0.27098E-04  8139   0.522E-02
      7 T=   304. E= -.66998525E+03 F= -.66984799E+03 E0= -.66984799E+03  EK= 0.34576E+01 SP= -.36E+01 SK= 0.20E-01 mag=     -0.000
       N       E                     dE             d eps       ncg     rms          rms(c)
DAV:   1    -0.669833365332E+03    0.14679E-01   -0.35284E-02 18690   0.191E+00    0.109E-01
RMM:   2    -0.669834593697E+03   -0.12284E-02   -0.12028E-02 15109   0.268E-01    0.858E-02
RMM:   3    -0.669834874142E+03   -0.28044E-03   -0.26308E-03 14135   0.843E-02    0.881E-02
RMM:   4    -0.669834906854E+03   -0.32712E-04   -0.60381E-04 10352   0.878E-02
      8 T=   298. E= -.66998512E+03 F= -.66983491E+03 E0= -.66983491E+03  EK= 0.33862E+01 SP= -.36E+01 SK= 0.20E-01 mag=      0.000
       N       E                     dE             d eps       ncg     rms          rms(c)
DAV:   1    -0.669818003089E+03    0.16871E-01   -0.36285E-02 19041   0.189E+00    0.177E-01
RMM:   2    -0.669820033709E+03   -0.20306E-02   -0.24184E-02 15292   0.311E-01    0.196E-01
RMM:   3    -0.669819951729E+03    0.81980E-04   -0.24394E-03 13978   0.108E-01    0.836E-02
RMM:   4    -0.669819998725E+03   -0.46996E-04   -0.89563E-04 12451   0.719E-02
      9 T=   291. E= -.66998469E+03 F= -.66982000E+03 E0= -.66982000E+03  EK= 0.33152E+01 SP= -.35E+01 SK= 0.19E-01 mag=     -0.001
       N       E                     dE             d eps       ncg     rms          rms(c)
DAV:   1    -0.669803682653E+03    0.16269E-01   -0.32934E-02 17970   0.186E+00    0.155E-01
RMM:   2    -0.669805413501E+03   -0.17308E-02   -0.21218E-02 15223   0.304E-01    0.732E-02
RMM:   3    -0.669805568263E+03   -0.15476E-03   -0.26929E-03 15230   0.992E-02    0.103E-01
RMM:   4    -0.669805600152E+03   -0.31888E-04   -0.70233E-04 11167   0.664E-02
     10 T=   286. E= -.66998443E+03 F= -.66980560E+03 E0= -.66980560E+03  EK= 0.32478E+01 SP= -.34E+01 SK= 0.17E-01 mag=     -0.001
       N       E                     dE             d eps       ncg     rms          rms(c)
DAV:   1    -0.669791993912E+03    0.13574E-01   -0.30531E-02 18708   0.183E+00    0.103E-01
RMM:   2    -0.669793360713E+03   -0.13668E-02   -0.14100E-02 15336   0.273E-01    0.111E-01
RMM:   3    -0.669793535117E+03   -0.17440E-03   -0.24105E-03 14193   0.882E-02    0.799E-02
RMM:   4    -0.669793560600E+03   -0.25484E-04   -0.69031E-04 11340   0.891E-02
     11 T=   280. E= -.66998393E+03 F= -.66979356E+03 E0= -.66979356E+03  EK= 0.31879E+01 SP= -.34E+01 SK= 0.14E-01 mag=     -0.001
       N       E                     dE             d eps       ncg     rms          rms(c)
DAV:   1    -0.669784435776E+03    0.90993E-02   -0.28888E-02 19251   0.181E+00    0.131E-01
RMM:   2    -0.669785369520E+03   -0.93374E-03   -0.12642E-02 15167   0.265E-01    0.101E-01
RMM:   3    -0.669785522530E+03   -0.15301E-03   -0.23795E-03 14936   0.930E-02    0.333E-02
RMM:   4    -0.669785579681E+03   -0.57151E-04   -0.65214E-04 10691   0.707E-02
     12 T=   276. E= -.66998314E+03 F= -.66978558E+03 E0= -.66978558E+03  EK= 0.31382E+01 SP= -.33E+01 SK= 0.11E-01 mag=      0.000
       N       E                     dE             d eps       ncg     rms          rms(c)
DAV:   1    -0.669781904054E+03    0.36185E-02   -0.26354E-02 18804   0.177E+00    0.272E-01
RMM:   2    -0.669782924990E+03   -0.10209E-02   -0.11620E-02 15231   0.252E-01    0.142E-01
RMM:   3    -0.669783114443E+03   -0.18945E-03   -0.20758E-03 13815   0.825E-02    0.176E-01
RMM:   4    -0.669783150037E+03   -0.35594E-04   -0.53973E-04 10357   0.897E-02
     13 T=   273. E= -.66998286E+03 F= -.66978315E+03 E0= -.66978315E+03  EK= 0.31003E+01 SP= -.33E+01 SK= 0.74E-02 mag=      0.001
       N       E                     dE             d eps       ncg     rms          rms(c)
DAV:   1    -0.669786450423E+03   -0.33360E-02   -0.25444E-02 18801   0.175E+00    0.137E-01
RMM:   2    -0.669787182620E+03   -0.73220E-03   -0.10450E-02 15245   0.251E-01    0.115E-01
RMM:   3    -0.669787380118E+03   -0.19750E-03   -0.20394E-03 14489   0.788E-02    0.102E-01
RMM:   4    -0.669787396939E+03   -0.16821E-04   -0.57644E-04 11598   0.823E-02
     14 T=   270. E= -.66998298E+03 F= -.66978740E+03 E0= -.66978740E+03  EK= 0.30760E+01 SP= -.33E+01 SK= 0.44E-02 mag=      0.002
       N       E                     dE             d eps       ncg     rms          rms(c)
DAV:   1    -0.669798067035E+03   -0.10687E-01   -0.24967E-02 18612   0.175E+00    0.796E-02
RMM:   2    -0.669799305075E+03   -0.12380E-02   -0.13693E-02 15259   0.257E-01    0.135E-01
RMM:   3    -0.669799465239E+03   -0.16016E-03   -0.23410E-03 14392   0.893E-02    0.102E-01
RMM:   4    -0.669799437049E+03    0.28189E-04   -0.61973E-04 11173   0.919E-02
     15 T=   270. E= -.66998299E+03 F= -.66979944E+03 E0= -.66979944E+03  EK= 0.30672E+01 SP= -.33E+01 SK= 0.21E-02 mag=      0.001
       N       E                     dE             d eps       ncg     rms          rms(c)
DAV:   1    -0.669818059095E+03   -0.18594E-01   -0.28398E-02 19941   0.174E+00    0.166E-01
RMM:   2    -0.669819669888E+03   -0.16108E-02   -0.19636E-02 15251   0.276E-01    0.832E-02
RMM:   3    -0.669819859195E+03   -0.18931E-03   -0.28186E-03 14050   0.101E-01    0.811E-02
RMM:   4    -0.669819861409E+03   -0.22142E-05   -0.68542E-04 10920   0.102E-01
     16 T=   270. E= -.66998229E+03 F= -.66981986E+03 E0= -.66981986E+03  EK= 0.30751E+01 SP= -.32E+01 SK= 0.64E-03 mag=      0.001
       N       E                     dE             d eps       ncg     rms          rms(c)
DAV:   1    -0.669847083618E+03   -0.27224E-01   -0.28861E-02 19635   0.174E+00    0.167E-01
RMM:   2    -0.669848955144E+03   -0.18715E-02   -0.24679E-02 15258   0.295E-01    0.716E-02
RMM:   3    -0.669849117124E+03   -0.16198E-03   -0.26590E-03 15181   0.105E-01    0.804E-02
RMM:   4    -0.669849135669E+03   -0.18545E-04   -0.66148E-04 11438   0.805E-02
     17 T=   272. E= -.66998160E+03 F= -.66984914E+03 E0= -.66984914E+03  EK= 0.30993E+01 SP= -.32E+01 SK= 0.32E-04 mag=     -0.001
       N       E                     dE             d eps       ncg     rms          rms(c)
DAV:   1    -0.669886336595E+03   -0.37219E-01   -0.24088E-02 18597   0.175E+00    0.255E-01
RMM:   2    -0.669887341520E+03   -0.10049E-02   -0.15551E-02 15296   0.267E-01    0.169E-01
RMM:   3    -0.669887544409E+03   -0.20289E-03   -0.20825E-03 14231   0.853E-02    0.119E-01
RMM:   4    -0.669887603722E+03   -0.59313E-04   -0.60083E-04 11312   0.904E-02
     18 T=   276. E= -.66998144E+03 F= -.66988760E+03 E0= -.66988760E+03  EK= 0.31391E+01 SP= -.32E+01 SK= 0.14E-03 mag=      0.000
       N       E                     dE             d eps       ncg     rms          rms(c)
DAV:   1    -0.669933835461E+03   -0.46291E-01   -0.23794E-02 18324   0.176E+00    0.820E-02
RMM:   2    -0.669934644633E+03   -0.80917E-03   -0.90786E-03 15332   0.231E-01    0.820E-02
RMM:   3    -0.669934825090E+03   -0.18046E-03   -0.19968E-03 15855   0.802E-02    0.647E-02
RMM:   4    -0.669934904817E+03   -0.79726E-04   -0.65188E-04 10662   0.636E-02
     19 T=   281. E= -.66998129E+03 F= -.66993490E+03 E0= -.66993490E+03  EK= 0.31940E+01 SP= -.32E+01 SK= 0.72E-03 mag=     -0.002
       N       E                     dE             d eps       ncg     rms          rms(c)
DAV:   1    -0.669989573282E+03   -0.54748E-01   -0.24314E-02 17508   0.178E+00    0.145E-01
RMM:   2    -0.669990208903E+03   -0.63562E-03   -0.11445E-02 15265   0.262E-01    0.721E-02
RMM:   3    -0.669990335736E+03   -0.12683E-03   -0.21002E-03 15440   0.831E-02    0.586E-02
RMM:   4    -0.669990322315E+03    0.13421E-04   -0.60000E-04 11385   0.760E-02
     20 T=   287. E= -.66998135E+03 F= -.66999032E+03 E0= -.66999032E+03  EK= 0.32620E+01 SP= -.33E+01 SK= 0.14E-02 mag=      0.001
       N       E                     dE             d eps       ncg     rms          rms(c)
DAV:   1    -0.670051648196E+03   -0.61312E-01   -0.26727E-02 18129   0.182E+00    0.141E-01
RMM:   2    -0.670052687718E+03   -0.10395E-02   -0.14645E-02 15287   0.284E-01    0.655E-02
RMM:   3    -0.670052924248E+03   -0.23653E-03   -0.24193E-03 15624   0.889E-02    0.546E-02
RMM:   4    -0.670052964877E+03   -0.40628E-04   -0.65639E-04 12020   0.797E-02
     21 T=   294. E= -.66998129E+03 F= -.67005296E+03 E0= -.67005296E+03  EK= 0.33411E+01 SP= -.33E+01 SK= 0.20E-02 mag=     -0.002
       N       E                     dE             d eps       ncg     rms          rms(c)
DAV:   1    -0.670120040699E+03   -0.67116E-01   -0.28573E-02 18630   0.184E+00    0.109E-01
RMM:   2    -0.670121161090E+03   -0.11204E-02   -0.11289E-02 15397   0.248E-01    0.752E-02
RMM:   3    -0.670121336288E+03   -0.17520E-03   -0.20406E-03 15937   0.799E-02    0.659E-02
RMM:   4    -0.670121372984E+03   -0.36697E-04   -0.60152E-04 11656   0.678E-02
     22 T=   301. E= -.66998100E+03 F= -.67012137E+03 E0= -.67012137E+03  EK= 0.34283E+01 SP= -.33E+01 SK= 0.21E-02 mag=      0.002
       N       E                     dE             d eps       ncg     rms          rms(c)
DAV:   1    -0.670192396662E+03   -0.71060E-01   -0.29058E-02 18774   0.188E+00    0.720E-02
RMM:   2    -0.670193428790E+03   -0.10321E-02   -0.11071E-02 15258   0.251E-01    0.463E-02
RMM:   3    -0.670193604293E+03   -0.17550E-03   -0.21154E-03 15506   0.805E-02    0.352E-02
RMM:   4    -0.670193656075E+03   -0.51781E-04   -0.69173E-04 11650   0.756E-02
     23 T=   309. E= -.66998074E+03 F= -.67019366E+03 E0= -.67019366E+03  EK= 0.35193E+01 SP= -.33E+01 SK= 0.18E-02 mag=     -0.000
       N       E                     dE             d eps       ncg     rms          rms(c)
DAV:   1    -0.670266590472E+03   -0.72986E-01   -0.29853E-02 18306   0.191E+00    0.715E-02
RMM:   2    -0.670267595308E+03   -0.10048E-02   -0.10387E-02 15311   0.258E-01    0.623E-02
RMM:   3    -0.670267724278E+03   -0.12897E-03   -0.22450E-03 16344   0.827E-02    0.371E-02
RMM:   4    -0.670267777093E+03   -0.52815E-04   -0.77871E-04 11820   0.638E-02
     24 T=   317. E= -.66998071E+03 F= -.67026778E+03 E0= -.67026778E+03  EK= 0.36095E+01 SP= -.33E+01 SK= 0.10E-02 mag=     -0.002
       N       E                     dE             d eps       ncg     rms          rms(c)
DAV:   1    -0.670339762592E+03   -0.72038E-01   -0.33505E-02 19026   0.195E+00    0.655E-02
RMM:   2    -0.670340866517E+03   -0.11039E-02   -0.11020E-02 15350   0.264E-01    0.543E-02
RMM:   3    -0.670341066388E+03   -0.19987E-03   -0.22003E-03 14721   0.812E-02    0.497E-02
RMM:   4    -0.670341101350E+03   -0.34963E-04   -0.67766E-04 11899   0.902E-02
     25 T=   325. E= -.66998088E+03 F= -.67034110E+03 E0= -.67034110E+03  EK= 0.36937E+01 SP= -.33E+01 SK= 0.31E-03 mag=     -0.003
       N       E                     dE             d eps       ncg     rms          rms(c)
DAV:   1    -0.670409778935E+03   -0.68713E-01   -0.33895E-02 18486   0.198E+00    0.829E-02
RMM:   2    -0.670410950351E+03   -0.11714E-02   -0.12537E-02 15425   0.257E-01    0.660E-02
RMM:   3    -0.670411095086E+03   -0.14473E-03   -0.23342E-03 15980   0.844E-02    0.636E-02
RMM:   4    -0.670411109119E+03   -0.14033E-04   -0.69552E-04 11986   0.716E-02
     26 T=   331. E= -.66998091E+03 F= -.67041111E+03 E0= -.67041111E+03  EK= 0.37671E+01 SP= -.33E+01 SK= 0.45E-05 mag=     -0.002
       N       E                     dE             d eps       ncg     rms          rms(c)
DAV:   1    -0.670473467462E+03   -0.62372E-01   -0.37278E-02 18933   0.200E+00    0.135E-01
RMM:   2    -0.670474723010E+03   -0.12555E-02   -0.14232E-02 15443   0.260E-01    0.661E-02
RMM:   3    -0.670474963170E+03   -0.24016E-03   -0.25648E-03 15816   0.873E-02    0.596E-02
RMM:   4    -0.670475005586E+03   -0.42417E-04   -0.70391E-04 12305   0.812E-02
     27 T=   336. E= -.66998071E+03 F= -.67047501E+03 E0= -.67047501E+03  EK= 0.38248E+01 SP= -.33E+01 SK= 0.67E-03 mag=     -0.002
       N       E                     dE             d eps       ncg     rms          rms(c)
DAV:   1    -0.670528809329E+03   -0.53846E-01   -0.36963E-02 17493   0.204E+00    0.128E-01
RMM:   2    -0.670530037134E+03   -0.12278E-02   -0.15463E-02 15455   0.281E-01    0.430E-02
RMM:   3    -0.670530362152E+03   -0.32502E-03   -0.33273E-03 16402   0.945E-02    0.591E-02
RMM:   4    -0.670530431766E+03   -0.69614E-04   -0.84761E-04 12079   0.788E-02
     28 T=   340. E= -.66998061E+03 F= -.67053043E+03 E0= -.67053043E+03  EK= 0.38621E+01 SP= -.33E+01 SK= 0.28E-02 mag=     -0.002
       N       E                     dE             d eps       ncg     rms          rms(c)
DAV:   1    -0.670574258868E+03   -0.43897E-01   -0.38975E-02 18069   0.205E+00    0.179E-01
RMM:   2    -0.670574779154E+03   -0.52029E-03   -0.12298E-02 15434   0.263E-01    0.922E-02
RMM:   3    -0.670574933695E+03   -0.15454E-03   -0.27812E-03 16581   0.906E-02    0.572E-02
RMM:   4    -0.670574975679E+03   -0.41984E-04   -0.11266E-03 14055   0.790E-02    0.347E-02
RMM:   5    -0.670575031750E+03   -0.56071E-04   -0.61793E-04 10552   0.577E-02
     29 T=   341. E= -.66998025E+03 F= -.67057503E+03 E0= -.67057503E+03  EK= 0.38758E+01 SP= -.33E+01 SK= 0.65E-02 mag=     -0.002
       N       E                     dE             d eps       ncg     rms          rms(c)
DAV:   1    -0.670606402964E+03   -0.31427E-01   -0.39086E-02 18597   0.206E+00    0.141E-01
RMM:   2    -0.670606959923E+03   -0.55696E-03   -0.10838E-02 15393   0.255E-01    0.733E-02
RMM:   3    -0.670607123384E+03   -0.16346E-03   -0.20662E-03 15314   0.800E-02    0.405E-02
RMM:   4    -0.670607169381E+03   -0.45997E-04   -0.67705E-04 11414   0.761E-02
     30 T=   340. E= -.66997992E+03 F= -.67060717E+03 E0= -.67060717E+03  EK= 0.38639E+01 SP= -.32E+01 SK= 0.12E-01 mag=     -0.001
       N       E                     dE             d eps       ncg     rms          rms(c)
DAV:   1    -0.670624330335E+03   -0.17207E-01   -0.39912E-02 18306   0.206E+00    0.655E-02
RMM:   2    -0.670625435764E+03   -0.11054E-02   -0.11237E-02 15510   0.263E-01    0.646E-02
RMM:   3    -0.670625631028E+03   -0.19526E-03   -0.22898E-03 15568   0.823E-02    0.580E-02
RMM:   4    -0.670625709418E+03   -0.78390E-04   -0.89243E-04 11943   0.768E-02
     31 T=   336. E= -.66997970E+03 F= -.67062571E+03 E0= -.67062571E+03  EK= 0.38256E+01 SP= -.32E+01 SK= 0.18E-01 mag=      0.002
       N       E                     dE             d eps       ncg     rms          rms(c)
DAV:   1    -0.670628607121E+03   -0.29761E-02   -0.39926E-02 18741   0.206E+00    0.140E-01
RMM:   2    -0.670629873466E+03   -0.12663E-02   -0.14527E-02 15444   0.266E-01    0.947E-02
RMM:   3    -0.670630029394E+03   -0.15593E-03   -0.29007E-03 16377   0.978E-02    0.733E-02
RMM:   4    -0.670630090319E+03   -0.60925E-04   -0.81606E-04 11864   0.573E-02
     32 T=   331. E= -.66997933E+03 F= -.67063009E+03 E0= -.67063009E+03  EK= 0.37626E+01 SP= -.31E+01 SK= 0.25E-01 mag=      0.002
       N       E                     dE             d eps       ncg     rms          rms(c)
DAV:   1    -0.670619279897E+03    0.10749E-01   -0.38105E-02 18420   0.206E+00    0.189E-01
RMM:   2    -0.670620272906E+03   -0.99301E-03   -0.14991E-02 15403   0.279E-01    0.119E-01
RMM:   3    -0.670620571502E+03   -0.29860E-03   -0.36816E-03 16316   0.982E-02    0.994E-02
RMM:   4    -0.670620634413E+03   -0.62911E-04   -0.11153E-03 13504   0.890E-02    0.899E-02
RMM:   5    -0.670620578101E+03    0.56312E-04   -0.38809E-04  9338   0.591E-02
     33 T=   323. E= -.66997868E+03 F= -.67062058E+03 E0= -.67062058E+03  EK= 0.36776E+01 SP= -.31E+01 SK= 0.32E-01 mag=      0.002
       N       E                     dE             d eps       ncg     rms          rms(c)
DAV:   1    -0.670596819943E+03    0.23814E-01   -0.36995E-02 18501   0.203E+00    0.205E-01
RMM:   2    -0.670598138366E+03   -0.13184E-02   -0.20902E-02 15431   0.293E-01    0.106E-01
RMM:   3    -0.670598308436E+03   -0.17007E-03   -0.30315E-03 15830   0.995E-02    0.102E-01
RMM:   4    -0.670598223127E+03    0.85309E-04   -0.83182E-04 12525   0.858E-02
     34 T=   314. E= -.66997818E+03 F= -.67059822E+03 E0= -.67059822E+03  EK= 0.35744E+01 SP= -.30E+01 SK= 0.37E-01 mag=      0.002
       N       E                     dE             d eps       ncg     rms          rms(c)
DAV:   1    -0.670563438240E+03    0.34870E-01   -0.44130E-02 21009   0.200E+00    0.159E-01
RMM:   2    -0.670565007759E+03   -0.15695E-02   -0.21792E-02 15350   0.298E-01    0.127E-01
RMM:   3    -0.670565035481E+03   -0.27722E-04   -0.28815E-03 15505   0.100E-01    0.115E-01
RMM:   4    -0.670564936053E+03    0.99428E-04   -0.98139E-04 13154   0.854E-02
     35 T=   304. E= -.66997783E+03 F= -.67056494E+03 E0= -.67056494E+03  EK= 0.34584E+01 SP= -.29E+01 SK= 0.39E-01 mag=     -0.001
       N       E                     dE             d eps       ncg     rms          rms(c)
DAV:   1    -0.670520460054E+03    0.44575E-01   -0.48425E-02 21075   0.200E+00    0.108E-01
RMM:   2    -0.670523189116E+03   -0.27291E-02   -0.28092E-02 15303   0.332E-01    0.105E-01
RMM:   3    -0.670523261067E+03   -0.71951E-04   -0.39121E-03 14718   0.123E-01    0.909E-02
RMM:   4    -0.670523250676E+03    0.10391E-04   -0.12295E-03 13992   0.851E-02    0.729E-02
RMM:   5    -0.670523174515E+03    0.76160E-04   -0.67876E-04 12056   0.681E-02
     36 T=   293. E= -.66997729E+03 F= -.67052317E+03 E0= -.67052317E+03  EK= 0.33356E+01 SP= -.28E+01 SK= 0.39E-01 mag=      0.000
       N       E                     dE             d eps       ncg     rms          rms(c)
DAV:   1    -0.670474617241E+03    0.48633E-01   -0.47978E-02 21474   0.193E+00    0.811E-02
RMM:   2    -0.670476469302E+03   -0.18521E-02   -0.17357E-02 15364   0.285E-01    0.110E-01
RMM:   3    -0.670476451301E+03    0.18001E-04   -0.24717E-03 15613   0.925E-02    0.821E-02
RMM:   4    -0.670476456803E+03   -0.55019E-05   -0.86295E-04 12760   0.750E-02
     37 T=   282. E= -.66997681E+03 F= -.67047646E+03 E0= -.67047646E+03  EK= 0.32126E+01 SP= -.27E+01 SK= 0.36E-01 mag=     -0.001
       N       E                     dE             d eps       ncg     rms          rms(c)
DAV:   1    -0.670426844026E+03    0.49607E-01   -0.30444E-02 19011   0.188E+00    0.105E-01
RMM:   2    -0.670428186037E+03   -0.13420E-02   -0.14983E-02 15436   0.261E-01    0.981E-02
RMM:   3    -0.670428425896E+03   -0.23986E-03   -0.24945E-03 14620   0.876E-02    0.113E-01
RMM:   4    -0.670428422689E+03    0.32064E-05   -0.65786E-04 11484   0.888E-02
     38 T=   272. E= -.66997601E+03 F= -.67042842E+03 E0= -.67042842E+03  EK= 0.30960E+01 SP= -.27E+01 SK= 0.30E-01 mag=      0.001
       N       E                     dE             d eps       ncg     rms          rms(c)
DAV:   1    -0.670381880186E+03    0.46546E-01   -0.26817E-02 18852   0.182E+00    0.198E-01
RMM:   2    -0.670382438825E+03   -0.55864E-03   -0.14227E-02 15415   0.255E-01    0.109E-01
RMM:   3    -0.670382649677E+03   -0.21085E-03   -0.18483E-03 14230   0.813E-02    0.105E-01
RMM:   4    -0.670382685983E+03   -0.36306E-04   -0.62244E-04 11012   0.815E-02
     39 T=   263. E= -.66997498E+03 F= -.67038269E+03 E0= -.67038269E+03  EK= 0.29912E+01 SP= -.26E+01 SK= 0.23E-01 mag=      0.004
       N       E                     dE             d eps       ncg     rms          rms(c)
DAV:   1    -0.670342017608E+03    0.40632E-01   -0.24122E-02 18228   0.177E+00    0.890E-02
RMM:   2    -0.670343021644E+03   -0.10040E-02   -0.10050E-02 15375   0.242E-01    0.956E-02
RMM:   3    -0.670343003914E+03    0.17730E-04   -0.19356E-03 15644   0.809E-02    0.561E-02
RMM:   4    -0.670343008440E+03   -0.45269E-05   -0.90846E-04 13137   0.730E-02
     40 T=   255. E= -.66997409E+03 F= -.67034301E+03 E0= -.67034301E+03  EK= 0.29033E+01 SP= -.25E+01 SK= 0.15E-01 mag=      0.002
       N       E                     dE             d eps       ncg     rms          rms(c)
DAV:   1    -0.670311780589E+03    0.31223E-01   -0.26759E-02 20484   0.173E+00    0.157E-01
RMM:   2    -0.670312915417E+03   -0.11348E-02   -0.10087E-02 15364   0.233E-01    0.132E-01
RMM:   3    -0.670313064168E+03   -0.14875E-03   -0.21413E-03 15348   0.824E-02    0.112E-01
RMM:   4    -0.670312997319E+03    0.66849E-04   -0.72888E-04 11552   0.695E-02
     41 T=   249. E= -.66997392E+03 F= -.67031300E+03 E0= -.67031300E+03  EK= 0.28362E+01 SP= -.25E+01 SK= 0.83E-02 mag=     -0.000
       N       E                     dE             d eps       ncg     rms          rms(c)
DAV:   1    -0.670294695963E+03    0.18368E-01   -0.22957E-02 19446   0.172E+00    0.180E-01
RMM:   2    -0.670295149242E+03   -0.45328E-03   -0.84519E-03 15469   0.222E-01    0.152E-01
RMM:   3    -0.670295282926E+03   -0.13368E-03   -0.18833E-03 14480   0.737E-02    0.141E-01
RMM:   4    -0.670295177673E+03    0.10525E-03   -0.65043E-04 11946   0.799E-02    0.116E-01
RMM:   5    -0.670295104089E+03    0.73585E-04   -0.83884E-04 12266   0.611E-02
     42 T=   246. E= -.66997377E+03 F= -.67029510E+03 E0= -.67029510E+03  EK= 0.27937E+01 SP= -.25E+01 SK= 0.30E-02 mag=      0.000
       N       E                     dE             d eps       ncg     rms          rms(c)
DAV:   1    -0.670290438338E+03    0.47393E-02   -0.21790E-02 18627   0.172E+00    0.767E-02
RMM:   2    -0.670291177012E+03   -0.73867E-03   -0.92904E-03 15359   0.237E-01    0.527E-02
RMM:   3    -0.670291325847E+03   -0.14884E-03   -0.17303E-03 14341   0.736E-02    0.537E-02
RMM:   4    -0.670291365094E+03   -0.39247E-04   -0.62784E-04 10830   0.780E-02
     43 T=   244. E= -.66997356E+03 F= -.67029137E+03 E0= -.67029137E+03  EK= 0.27782E+01 SP= -.25E+01 SK= 0.28E-03 mag=      0.001
       N       E                     dE             d eps       ncg     rms          rms(c)
DAV:   1    -0.670301647385E+03   -0.10322E-01   -0.23081E-02 19107   0.170E+00    0.933E-02
RMM:   2    -0.670302642962E+03   -0.99558E-03   -0.10353E-02 15473   0.224E-01    0.733E-02
RMM:   3    -0.670302769889E+03   -0.12693E-03   -0.22050E-03 15709   0.844E-02    0.500E-02
RMM:   4    -0.670302803237E+03   -0.33349E-04   -0.53115E-04 10881   0.689E-02
     44 T=   245. E= -.66997317E+03 F= -.67030280E+03 E0= -.67030280E+03  EK= 0.27908E+01 SP= -.25E+01 SK= 0.46E-03 mag=     -0.001
       N       E                     dE             d eps       ncg     rms          rms(c)
DAV:   1    -0.670328247650E+03   -0.25478E-01   -0.23119E-02 19398   0.171E+00    0.694E-02
RMM:   2    -0.670329267305E+03   -0.10197E-02   -0.10531E-02 15493   0.222E-01    0.691E-02
RMM:   3    -0.670329348029E+03   -0.80724E-04   -0.15712E-03 14616   0.777E-02    0.593E-02
RMM:   4    -0.670329369515E+03   -0.21486E-04   -0.53765E-04 10760   0.694E-02
     45 T=   249. E= -.66997256E+03 F= -.67032937E+03 E0= -.67032937E+03  EK= 0.28314E+01 SP= -.25E+01 SK= 0.33E-02 mag=     -0.001
       N       E                     dE             d eps       ncg     rms          rms(c)
DAV:   1    -0.670368660492E+03   -0.39312E-01   -0.24198E-02 20115   0.173E+00    0.605E-02
RMM:   2    -0.670369670978E+03   -0.10105E-02   -0.10337E-02 15486   0.219E-01    0.865E-02
RMM:   3    -0.670369650780E+03    0.20197E-04   -0.17736E-03 15420   0.808E-02    0.623E-02
RMM:   4    -0.670369649358E+03    0.14220E-05   -0.73191E-04 12463   0.706E-02
     46 T=   255. E= -.66997182E+03 F= -.67036965E+03 E0= -.67036965E+03  EK= 0.28982E+01 SP= -.25E+01 SK= 0.83E-02 mag=      0.000
       N       E                     dE             d eps       ncg     rms          rms(c)
DAV:   1    -0.670419970401E+03   -0.50320E-01   -0.24437E-02 19842   0.175E+00    0.928E-02
RMM:   2    -0.670420933678E+03   -0.96328E-03   -0.10064E-02 15444   0.227E-01    0.557E-02
RMM:   3    -0.670421095106E+03   -0.16143E-03   -0.19100E-03 13826   0.748E-02    0.383E-02
RMM:   4    -0.670421133028E+03   -0.37922E-04   -0.56889E-04 11168   0.903E-02
     47 T=   263. E= -.66997136E+03 F= -.67042113E+03 E0= -.67042113E+03  EK= 0.29875E+01 SP= -.26E+01 SK= 0.14E-01 mag=      0.001
       N       E                     dE             d eps       ncg     rms          rms(c)
DAV:   1    -0.670479321157E+03   -0.58226E-01   -0.23524E-02 19059   0.179E+00    0.582E-02
RMM:   2    -0.670480161038E+03   -0.83988E-03   -0.82065E-03 15545   0.218E-01    0.512E-02
RMM:   3    -0.670480311148E+03   -0.15011E-03   -0.17692E-03 14008   0.719E-02    0.432E-02
RMM:   4    -0.670480365350E+03   -0.54202E-04   -0.69872E-04 10691   0.804E-02
     48 T=   272. E= -.66997136E+03 F= -.67048037E+03 E0= -.67048037E+03  EK= 0.30948E+01 SP= -.26E+01 SK= 0.20E-01 mag=      0.001
       N       E                     dE             d eps       ncg     rms          rms(c)
DAV:   1    -0.670541852890E+03   -0.61542E-01   -0.24747E-02 19365   0.183E+00    0.103E-01
RMM:   2    -0.670542768012E+03   -0.91512E-03   -0.10227E-02 15522   0.223E-01    0.651E-02
RMM:   3    -0.670542909316E+03   -0.14130E-03   -0.20885E-03 15049   0.796E-02    0.466E-02
RMM:   4    -0.670542977733E+03   -0.68417E-04   -0.68912E-04 11395   0.765E-02
     49 T=   283. E= -.66997146E+03 F= -.67054298E+03 E0= -.67054298E+03  EK= 0.32144E+01 SP= -.27E+01 SK= 0.25E-01 mag=     -0.000
       N       E                     dE             d eps       ncg     rms          rms(c)
DAV:   1    -0.670603267156E+03   -0.60358E-01   -0.26519E-02 18822   0.188E+00    0.993E-02
RMM:   2    -0.670604046653E+03   -0.77950E-03   -0.92104E-03 15582   0.217E-01    0.658E-02
RMM:   3    -0.670604218379E+03   -0.17173E-03   -0.17200E-03 14413   0.747E-02    0.634E-02
RMM:   4    -0.670604251130E+03   -0.32751E-04   -0.63672E-04 11454   0.763E-02
     50 T=   294. E= -.66997176E+03 F= -.67060425E+03 E0= -.67060425E+03  EK= 0.33393E+01 SP= -.27E+01 SK= 0.27E-01 mag=     -0.001
       N       E                     dE             d eps       ncg     rms          rms(c)
DAV:   1    -0.670658297335E+03   -0.54079E-01   -0.27968E-02 19491   0.193E+00    0.762E-02
RMM:   2    -0.670659127814E+03   -0.83048E-03   -0.10315E-02 15500   0.241E-01    0.376E-02
RMM:   3    -0.670659305684E+03   -0.17787E-03   -0.20568E-03 15313   0.772E-02    0.297E-02
RMM:   4    -0.670659367185E+03   -0.61501E-04   -0.70964E-04 11246   0.707E-02
     51 T=   304. E= -.66997187E+03 F= -.67065937E+03 E0= -.67065937E+03  EK= 0.34624E+01 SP= -.28E+01 SK= 0.27E-01 mag=     -0.001
       N       E                     dE             d eps       ncg     rms          rms(c)
DAV:   1    -0.670703134732E+03   -0.43829E-01   -0.30278E-02 18981   0.196E+00    0.106E-01
RMM:   2    -0.670703980809E+03   -0.84608E-03   -0.10993E-02 15582   0.232E-01    0.553E-02
RMM:   3    -0.670704137725E+03   -0.15692E-03   -0.20633E-03 15039   0.782E-02    0.432E-02
RMM:   4    -0.670704171509E+03   -0.33784E-04   -0.64426E-04 11442   0.744E-02
     52 T=   314. E= -.66997159E+03 F= -.67070417E+03 E0= -.67070417E+03  EK= 0.35767E+01 SP= -.29E+01 SK= 0.25E-01 mag=     -0.000
       N       E                     dE             d eps       ncg     rms          rms(c)
DAV:   1    -0.670733883467E+03   -0.29746E-01   -0.31352E-02 19494   0.200E+00    0.606E-02
RMM:   2    -0.670734860532E+03   -0.97706E-03   -0.10209E-02 15574   0.233E-01    0.346E-02
RMM:   3    -0.670735022445E+03   -0.16191E-03   -0.18887E-03 14500   0.766E-02    0.308E-02
RMM:   4    -0.670735091944E+03   -0.69499E-04   -0.80371E-04 11397   0.818E-02
     53 T=   323. E= -.66997127E+03 F= -.67073509E+03 E0= -.67073509E+03  EK= 0.36747E+01 SP= -.29E+01 SK= 0.21E-01 mag=      0.000
       N       E                     dE             d eps       ncg     rms          rms(c)
DAV:   1    -0.670748040816E+03   -0.13018E-01   -0.31763E-02 18579   0.202E+00    0.630E-02
RMM:   2    -0.670749285054E+03   -0.12442E-02   -0.12969E-02 15551   0.256E-01    0.351E-02
RMM:   3    -0.670749498188E+03   -0.21313E-03   -0.23204E-03 14808   0.825E-02    0.401E-02
RMM:   4    -0.670749530299E+03   -0.32111E-04   -0.67263E-04 11859   0.847E-02
     54 T=   330. E= -.66997103E+03 F= -.67074953E+03 E0= -.67074953E+03  EK= 0.37506E+01 SP= -.30E+01 SK= 0.16E-01 mag=      0.001
       N       E                     dE             d eps       ncg     rms          rms(c)
DAV:   1    -0.670744949639E+03    0.45485E-02   -0.33416E-02 19236   0.205E+00    0.671E-02
RMM:   2    -0.670746149048E+03   -0.11994E-02   -0.12558E-02 15606   0.250E-01    0.307E-02
RMM:   3    -0.670746352320E+03   -0.20327E-03   -0.22733E-03 14323   0.819E-02    0.318E-02
RMM:   4    -0.670746418071E+03   -0.65751E-04   -0.80851E-04 11651   0.911E-02
     55 T=   334. E= -.66997079E+03 F= -.67074642E+03 E0= -.67074642E+03  EK= 0.38005E+01 SP= -.30E+01 SK= 0.11E-01 mag=      0.000
       N       E                     dE             d eps       ncg     rms          rms(c)
DAV:   1    -0.670724383567E+03    0.21969E-01   -0.34791E-02 18981   0.205E+00    0.732E-02
RMM:   2    -0.670725655584E+03   -0.12720E-02   -0.13691E-02 15527   0.260E-01    0.387E-02
RMM:   3    -0.670725855725E+03   -0.20014E-03   -0.22951E-03 14609   0.826E-02    0.404E-02
RMM:   4    -0.670725892345E+03   -0.36621E-04   -0.75138E-04 12103   0.897E-02
     56 T=   336. E= -.66997023E+03 F= -.67072589E+03 E0= -.67072589E+03  EK= 0.38229E+01 SP= -.31E+01 SK= 0.63E-02 mag=      0.000
       N       E                     dE             d eps       ncg     rms          rms(c)
DAV:   1    -0.670687970353E+03    0.37885E-01   -0.34903E-02 18786   0.204E+00    0.882E-02
RMM:   2    -0.670689290044E+03   -0.13197E-02   -0.14250E-02 15555   0.266E-01    0.392E-02
RMM:   3    -0.670689503899E+03   -0.21386E-03   -0.24238E-03 15038   0.842E-02    0.293E-02
RMM:   4    -0.670689566541E+03   -0.62642E-04   -0.82253E-04 12100   0.855E-02
     57 T=   336. E= -.66996974E+03 F= -.67068957E+03 E0= -.67068957E+03  EK= 0.38179E+01 SP= -.31E+01 SK= 0.29E-02 mag=      0.000
       N       E                     dE             d eps       ncg     rms          rms(c)
DAV:   1    -0.670638666432E+03    0.50837E-01   -0.34163E-02 18582   0.202E+00    0.694E-02
RMM:   2    -0.670639935937E+03   -0.12695E-02   -0.12702E-02 15597   0.269E-01    0.504E-02
RMM:   3    -0.670640158099E+03   -0.22216E-03   -0.26995E-03 15796   0.862E-02    0.330E-02
RMM:   4    -0.670640228705E+03   -0.70606E-04   -0.86350E-04 12211   0.748E-02
     58 T=   333. E= -.66996921E+03 F= -.67064023E+03 E0= -.67064023E+03  EK= 0.37884E+01 SP= -.31E+01 SK= 0.89E-03 mag=      0.001
       N       E                     dE             d eps       ncg     rms          rms(c)
DAV:   1    -0.670580123962E+03    0.60034E-01   -0.34148E-02 19377   0.200E+00    0.472E-02
RMM:   2    -0.670581288050E+03   -0.11641E-02   -0.11530E-02 15641   0.257E-01    0.416E-02
RMM:   3    -0.670581530345E+03   -0.24229E-03   -0.25084E-03 15040   0.828E-02    0.408E-02
RMM:   4    -0.670581616282E+03   -0.85937E-04   -0.87630E-04 12306   0.816E-02
     59 T=   329. E= -.66996840E+03 F= -.67058162E+03 E0= -.67058162E+03  EK= 0.37393E+01 SP= -.31E+01 SK= 0.65E-04 mag=      0.001
       N       E                     dE             d eps       ncg     rms          rms(c)
DAV:   1    -0.670516456622E+03    0.65074E-01   -0.34030E-02 19317   0.197E+00    0.536E-02
RMM:   2    -0.670517518477E+03   -0.10619E-02   -0.11028E-02 15749   0.241E-01    0.373E-02
RMM:   3    -0.670517746136E+03   -0.22766E-03   -0.23800E-03 14974   0.804E-02    0.382E-02
RMM:   4    -0.670517832698E+03   -0.86561E-04   -0.88346E-04 12045   0.818E-02
     60 T=   323. E= -.66996742E+03 F= -.67051783E+03 E0= -.67051783E+03  EK= 0.36760E+01 SP= -.31E+01 SK= 0.10E-03 mag=      0.001
       N       E                     dE             d eps       ncg     rms          rms(c)
DAV:   1    -0.670451713253E+03    0.66033E-01   -0.33409E-02 19236   0.193E+00    0.547E-02
RMM:   2    -0.670452772655E+03   -0.10594E-02   -0.11369E-02 15687   0.250E-01    0.315E-02
RMM:   3    -0.670453012989E+03   -0.24033E-03   -0.25510E-03 15191   0.826E-02    0.246E-02
RMM:   4    -0.670453094276E+03   -0.81287E-04   -0.85964E-04 11970   0.804E-02
     61 T=   317. E= -.66996657E+03 F= -.67045309E+03 E0= -.67045309E+03  EK= 0.36045E+01 SP= -.31E+01 SK= 0.59E-03 mag=      0.001
       N       E                     dE             d eps       ncg     rms          rms(c)
DAV:   1    -0.670389986160E+03    0.63027E-01   -0.32998E-02 18753   0.190E+00    0.471E-02
RMM:   2    -0.670391082817E+03   -0.10967E-02   -0.11270E-02 15754   0.246E-01    0.275E-02
RMM:   3    -0.670391318803E+03   -0.23599E-03   -0.25262E-03 15108   0.819E-02    0.228E-02
RMM:   4    -0.670391402345E+03   -0.83543E-04   -0.89558E-04 12113   0.805E-02
     62 T=   310. E= -.66996585E+03 F= -.67039140E+03 E0= -.67039140E+03  EK= 0.35310E+01 SP= -.31E+01 SK= 0.12E-02 mag=     -0.000
       N       E                     dE             d eps       ncg     rms          rms(c)
DAV:   1    -0.670334703689E+03    0.56615E-01   -0.31550E-02 19317   0.186E+00    0.778E-02
RMM:   2    -0.670335742912E+03   -0.10392E-02   -0.10478E-02 15757   0.240E-01    0.711E-02
RMM:   3    -0.670335964561E+03   -0.22165E-03   -0.24748E-03 15221   0.810E-02    0.677E-02
RMM:   4    -0.670336038525E+03   -0.73964E-04   -0.89799E-04 12130   0.794E-02
     63 T=   304. E= -.66996527E+03 F= -.67033604E+03 E0= -.67033604E+03  EK= 0.34607E+01 SP= -.31E+01 SK= 0.15E-02 mag=     -0.002
       N       E                     dE             d eps       ncg     rms          rms(c)
DAV:   1    -0.670288084315E+03    0.47880E-01   -0.31224E-02 19314   0.182E+00    0.135E-01
RMM:   2    -0.670289234656E+03   -0.11503E-02   -0.11817E-02 15736   0.245E-01    0.126E-01
RMM:   3    -0.670289547026E+03   -0.31237E-03   -0.29198E-03 16099   0.867E-02    0.130E-01
RMM:   4    -0.670289562046E+03   -0.15020E-04   -0.80270E-04 12523   0.730E-02
     64 T=   299. E= -.66996524E+03 F= -.67028956E+03 E0= -.67028956E+03  EK= 0.33977E+01 SP= -.31E+01 SK= 0.16E-02 mag=     -0.004
       N       E                     dE             d eps       ncg     rms          rms(c)
DAV:   1    -0.670252208577E+03    0.37338E-01   -0.30736E-02 19221   0.180E+00    0.234E-01
RMM:   2    -0.670253092100E+03   -0.88352E-03   -0.13764E-02 15653   0.246E-01    0.177E-01
RMM:   3    -0.670253355185E+03   -0.26308E-03   -0.25601E-03 15800   0.876E-02    0.168E-01
RMM:   4    -0.670253572305E+03   -0.21712E-03   -0.98656E-04 13050   0.913E-02    0.158E-01
RMM:   5    -0.670253629926E+03   -0.57621E-04   -0.10731E-03 13456   0.703E-02    0.138E-01
RMM:   6    -0.670253493251E+03    0.13667E-03   -0.57125E-04 10400   0.648E-02    0.109E-01
RMM:   7    -0.670253338478E+03    0.15477E-03   -0.90243E-04 11951   0.729E-02    0.554E-02
RMM:   8    -0.670253355619E+03   -0.17141E-04   -0.58281E-04 11174   0.733E-02
     65 T=   294. E= -.66996578E+03 F= -.67025336E+03 E0= -.67025336E+03  EK= 0.33449E+01 SP= -.31E+01 SK= 0.14E-02 mag=     -0.000
       N       E                     dE             d eps       ncg     rms          rms(c)
DAV:   1    -0.670228002540E+03    0.25336E-01   -0.29087E-02 19521   0.183E+00    0.243E-01
RMM:   2    -0.670228105541E+03   -0.10300E-03   -0.10712E-02 15341   0.247E-01    0.638E-02
RMM:   3    -0.670228291846E+03   -0.18631E-03   -0.24497E-03 14969   0.834E-02    0.443E-02
RMM:   4    -0.670228339228E+03   -0.47381E-04   -0.70159E-04 11682   0.813E-02
     66 T=   291. E= -.66996581E+03 F= -.67022834E+03 E0= -.67022834E+03  EK= 0.33056E+01 SP= -.30E+01 SK= 0.11E-02 mag=     -0.001
       N       E                     dE             d eps       ncg     rms          rms(c)
DAV:   1    -0.670212763081E+03    0.15529E-01   -0.29756E-02 19041   0.177E+00    0.969E-02
RMM:   2    -0.670213676241E+03   -0.91316E-03   -0.11122E-02 15857   0.245E-01    0.541E-02
RMM:   3    -0.670213868256E+03   -0.19202E-03   -0.25195E-03 16268   0.841E-02    0.403E-02
RMM:   4    -0.670213929048E+03   -0.60792E-04   -0.85272E-04 12512   0.703E-02
     67 T=   288. E= -.66996479E+03 F= -.67021393E+03 E0= -.67021393E+03  EK= 0.32806E+01 SP= -.30E+01 SK= 0.66E-03 mag=     -0.000
       N       E                     dE             d eps       ncg     rms          rms(c)
DAV:   1    -0.670208141002E+03    0.57273E-02   -0.27441E-02 19029   0.176E+00    0.690E-02
RMM:   2    -0.670208996192E+03   -0.85519E-03   -0.10011E-02 15708   0.230E-01    0.314E-02
RMM:   3    -0.670209204788E+03   -0.20860E-03   -0.22228E-03 14664   0.770E-02    0.246E-02
RMM:   4    -0.670209265991E+03   -0.61203E-04   -0.67955E-04 11442   0.771E-02
     68 T=   287. E= -.66996436E+03 F= -.67020927E+03 E0= -.67020927E+03  EK= 0.32677E+01 SP= -.30E+01 SK= 0.31E-03 mag=     -0.000
       N       E                     dE             d eps       ncg     rms          rms(c)
DAV:   1    -0.670211284882E+03   -0.20801E-02   -0.27768E-02 20196   0.175E+00    0.601E-02
RMM:   2    -0.670212137131E+03   -0.85225E-03   -0.93389E-03 15770   0.221E-01    0.353E-02
RMM:   3    -0.670212315528E+03   -0.17840E-03   -0.21086E-03 15276   0.777E-02    0.282E-02
RMM:   4    -0.670212379475E+03   -0.63947E-04   -0.76889E-04 11501   0.735E-02
     69 T=   287. E= -.66996419E+03 F= -.67021238E+03 E0= -.67021238E+03  EK= 0.32658E+01 SP= -.30E+01 SK= 0.79E-04 mag=      0.000
       N       E                     dE             d eps       ncg     rms          rms(c)
DAV:   1    -0.670220108670E+03   -0.77931E-02   -0.26365E-02 18438   0.175E+00    0.434E-02
RMM:   2    -0.670220980590E+03   -0.87192E-03   -0.91540E-03 15979   0.214E-01    0.276E-02
RMM:   3    -0.670221174476E+03   -0.19389E-03   -0.20844E-03 14657   0.765E-02    0.239E-02
RMM:   4    -0.670221241926E+03   -0.67450E-04   -0.77974E-04 11624   0.836E-02
     70 T=   288. E= -.66996378E+03 F= -.67022124E+03 E0= -.67022124E+03  EK= 0.32732E+01 SP= -.30E+01 SK= 0.17E-06 mag=      0.000
       N       E                     dE             d eps       ncg     rms          rms(c)
DAV:   1    -0.670232778384E+03   -0.11604E-01   -0.25765E-02 18933   0.174E+00    0.541E-02
RMM:   2    -0.670233615075E+03   -0.83669E-03   -0.87572E-03 15840   0.210E-01    0.248E-02
RMM:   3    -0.670233792517E+03   -0.17744E-03   -0.19177E-03 14122   0.737E-02    0.185E-02
RMM:   4    -0.670233862523E+03   -0.70006E-04   -0.74111E-04 11137   0.813E-02
     71 T=   289. E= -.66996336E+03 F= -.67023386E+03 E0= -.67023386E+03  EK= 0.32877E+01 SP= -.30E+01 SK= 0.54E-04 mag=      0.000
       N       E                     dE             d eps       ncg     rms          rms(c)
DAV:   1    -0.670246786230E+03   -0.12994E-01   -0.25982E-02 19155   0.175E+00    0.577E-02
RMM:   2    -0.670247673203E+03   -0.88697E-03   -0.91729E-03 15698   0.222E-01    0.380E-02
RMM:   3    -0.670247872608E+03   -0.19941E-03   -0.21215E-03 14390   0.766E-02    0.317E-02
RMM:   4    -0.670247940016E+03   -0.67407E-04   -0.74858E-04 11517   0.822E-02
     72 T=   291. E= -.66996318E+03 F= -.67024794E+03 E0= -.67024794E+03  EK= 0.33062E+01 SP= -.30E+01 SK= 0.20E-03 mag=     -0.000
       N       E                     dE             d eps       ncg     rms          rms(c)
DAV:   1    -0.670260744673E+03   -0.12872E-01   -0.27072E-02 19122   0.176E+00    0.601E-02
RMM:   2    -0.670261579356E+03   -0.83468E-03   -0.89375E-03 15899   0.216E-01    0.331E-02
RMM:   3    -0.670261767808E+03   -0.18845E-03   -0.22050E-03 15403   0.774E-02    0.186E-02
RMM:   4    -0.670261846530E+03   -0.78721E-04   -0.85105E-04 11694   0.701E-02
     73 T=   292. E= -.66996307E+03 F= -.67026185E+03 E0= -.67026185E+03  EK= 0.33270E+01 SP= -.30E+01 SK= 0.39E-03 mag=     -0.000
       N       E                     dE             d eps       ncg     rms          rms(c)
DAV:   1    -0.670273137941E+03   -0.11370E-01   -0.26995E-02 19335   0.176E+00    0.560E-02
RMM:   2    -0.670273962329E+03   -0.82439E-03   -0.88832E-03 15818   0.214E-01    0.371E-02
RMM:   3    -0.670274141103E+03   -0.17877E-03   -0.20087E-03 14298   0.751E-02    0.301E-02
RMM:   4    -0.670274206307E+03   -0.65204E-04   -0.77294E-04 11249   0.797E-02
     74 T=   294. E= -.66996267E+03 F= -.67027421E+03 E0= -.67027421E+03  EK= 0.33486E+01 SP= -.30E+01 SK= 0.57E-03 mag=     -0.000
       N       E                     dE             d eps       ncg     rms          rms(c)
DAV:   1    -0.670282704062E+03   -0.85630E-02   -0.27395E-02 19002   0.177E+00    0.425E-02
RMM:   2    -0.670283570231E+03   -0.86617E-03   -0.88778E-03 15968   0.204E-01    0.308E-02
RMM:   3    -0.670283761953E+03   -0.19172E-03   -0.20350E-03 14554   0.742E-02    0.281E-02
RMM:   4    -0.670283838917E+03   -0.76964E-04   -0.83237E-04 11445   0.797E-02
     75 T=   296. E= -.66996205E+03 F= -.67028384E+03 E0= -.67028384E+03  EK= 0.33691E+01 SP= -.30E+01 SK= 0.72E-03 mag=     -0.000
       N       E                     dE             d eps       ncg     rms          rms(c)
DAV:   1    -0.670289065259E+03   -0.53033E-02   -0.27069E-02 19413   0.176E+00    0.282E-02
RMM:   2    -0.670289940543E+03   -0.87528E-03   -0.87547E-03 15763   0.223E-01    0.220E-02
RMM:   3    -0.670290149183E+03   -0.20864E-03   -0.22155E-03 14367   0.775E-02    0.182E-02
RMM:   4    -0.670290231947E+03   -0.82764E-04   -0.89376E-04 11464   0.828E-02
     76 T=   298. E= -.66996166E+03 F= -.67029023E+03 E0= -.67029023E+03  EK= 0.33873E+01 SP= -.31E+01 SK= 0.82E-03 mag=      0.000
       N       E                     dE             d eps       ncg     rms          rms(c)
DAV:   1    -0.670291831700E+03   -0.16825E-02   -0.27552E-02 18324   0.177E+00    0.392E-02
RMM:   2    -0.670292812538E+03   -0.98084E-03   -0.98412E-03 15807   0.232E-01    0.211E-02
RMM:   3    -0.670293030049E+03   -0.21751E-03   -0.23037E-03 14692   0.779E-02    0.179E-02
RMM:   4    -0.670293107060E+03   -0.77011E-04   -0.83674E-04 11460   0.798E-02
     77 T=   299. E= -.66996141E+03 F= -.67029311E+03 E0= -.67029311E+03  EK= 0.34023E+01 SP= -.31E+01 SK= 0.86E-03 mag=      0.000
       N       E                     dE             d eps       ncg     rms          rms(c)
DAV:   1    -0.670291485983E+03    0.15441E-02   -0.28688E-02 19077   0.177E+00    0.352E-02
RMM:   2    -0.670292467472E+03   -0.98149E-03   -0.99152E-03 15834   0.223E-01    0.246E-02
RMM:   3    -0.670292668762E+03   -0.20129E-03   -0.21851E-03 14560   0.775E-02    0.228E-02
RMM:   4    -0.670292739924E+03   -0.71162E-04   -0.82045E-04 11653   0.828E-02
     78 T=   300. E= -.66996099E+03 F= -.67029274E+03 E0= -.67029274E+03  EK= 0.34145E+01 SP= -.31E+01 SK= 0.86E-03 mag=      0.000
       N       E                     dE             d eps       ncg     rms          rms(c)
DAV:   1    -0.670288515257E+03    0.41535E-02   -0.29200E-02 19575   0.177E+00    0.346E-02
RMM:   2    -0.670289458674E+03   -0.94342E-03   -0.95107E-03 15787   0.212E-01    0.196E-02
RMM:   3    -0.670289653149E+03   -0.19448E-03   -0.20843E-03 14027   0.771E-02    0.209E-02
RMM:   4    -0.670289730849E+03   -0.77700E-04   -0.82575E-04 11312   0.826E-02
     79 T=   301. E= -.66996049E+03 F= -.67028973E+03 E0= -.67028973E+03  EK= 0.34240E+01 SP= -.31E+01 SK= 0.82E-03 mag=      0.000
       N       E                     dE             d eps       ncg     rms          rms(c)
DAV:   1    -0.670283644530E+03    0.60086E-02   -0.27819E-02 19668   0.178E+00    0.378E-02
RMM:   2    -0.670284542098E+03   -0.89757E-03   -0.91482E-03 15635   0.229E-01    0.257E-02
RMM:   3    -0.670284754689E+03   -0.21259E-03   -0.22449E-03 14185   0.764E-02    0.218E-02
RMM:   4    -0.670284831267E+03   -0.76577E-04   -0.80272E-04 11390   0.827E-02
     80 T=   302. E= -.66995989E+03 F= -.67028483E+03 E0= -.67028483E+03  EK= 0.34313E+01 SP= -.31E+01 SK= 0.75E-03 mag=      0.000
       N       E                     dE             d eps       ncg     rms          rms(c)
DAV:   1    -0.670277955238E+03    0.67995E-02   -0.27954E-02 19377   0.177E+00    0.372E-02
RMM:   2    -0.670278867695E+03   -0.91246E-03   -0.91892E-03 15606   0.229E-01    0.194E-02
RMM:   3    -0.670279085125E+03   -0.21743E-03   -0.22728E-03 14518   0.770E-02    0.147E-02
RMM:   4    -0.670279166417E+03   -0.81292E-04   -0.86117E-04 11632   0.799E-02
     81 T=   302. E= -.66995929E+03 F= -.67027917E+03 E0= -.67027917E+03  EK= 0.34373E+01 SP= -.31E+01 SK= 0.66E-03 mag=      0.000
       N       E                     dE             d eps       ncg     rms          rms(c)
DAV:   1    -0.670272684368E+03    0.64008E-02   -0.27957E-02 19686   0.176E+00    0.476E-02
RMM:   2    -0.670273590220E+03   -0.90585E-03   -0.91983E-03 15739   0.215E-01    0.295E-02
RMM:   3    -0.670273781333E+03   -0.19111E-03   -0.20728E-03 14031   0.762E-02    0.221E-02
RMM:   4    -0.670273854582E+03   -0.73249E-04   -0.80030E-04 11519   0.828E-02
     82 T=   303. E= -.66995888E+03 F= -.67027385E+03 E0= -.67027385E+03  EK= 0.34427E+01 SP= -.31E+01 SK= 0.57E-03 mag=     -0.000
       N       E                     dE             d eps       ncg     rms          rms(c)
DAV:   1    -0.670268644948E+03    0.51364E-02   -0.27575E-02 19443   0.177E+00    0.407E-02
RMM:   2    -0.670269599726E+03   -0.95478E-03   -0.95649E-03 15772   0.222E-01    0.301E-02
RMM:   3    -0.670269802345E+03   -0.20262E-03   -0.21651E-03 14196   0.757E-02    0.248E-02
RMM:   4    -0.670269873412E+03   -0.71066E-04   -0.78003E-04 11392   0.829E-02
     83 T=   303. E= -.66995852E+03 F= -.67026987E+03 E0= -.67026987E+03  EK= 0.34485E+01 SP= -.31E+01 SK= 0.46E-03 mag=     -0.000
       N       E                     dE             d eps       ncg     rms          rms(c)
DAV:   1    -0.670266932637E+03    0.28697E-02   -0.27877E-02 19539   0.178E+00    0.359E-02
RMM:   2    -0.670267856326E+03   -0.92369E-03   -0.92139E-03 15831   0.220E-01    0.230E-02
RMM:   3    -0.670268056255E+03   -0.19993E-03   -0.21870E-03 14397   0.761E-02    0.173E-02
RMM:   4    -0.670268127475E+03   -0.71221E-04   -0.78998E-04 11584   0.811E-02
     84 T=   304. E= -.66995800E+03 F= -.67026813E+03 E0= -.67026813E+03  EK= 0.34558E+01 SP= -.31E+01 SK= 0.36E-03 mag=      0.000
       N       E                     dE             d eps       ncg     rms          rms(c)
DAV:   1    -0.670267941768E+03    0.11449E-03   -0.27263E-02 18900   0.177E+00    0.305E-02
RMM:   2    -0.670268879981E+03   -0.93821E-03   -0.93889E-03 15837   0.224E-01    0.206E-02
RMM:   3    -0.670269079793E+03   -0.19981E-03   -0.21323E-03 14266   0.748E-02    0.162E-02
RMM:   4    -0.670269156690E+03   -0.76897E-04   -0.82450E-04 11358   0.818E-02
     85 T=   305. E= -.66995748E+03 F= -.67026916E+03 E0= -.67026916E+03  EK= 0.34646E+01 SP= -.32E+01 SK= 0.25E-03 mag=      0.000
       N       E                     dE             d eps       ncg     rms          rms(c)
DAV:   1    -0.670271640937E+03   -0.25611E-02   -0.26745E-02 19476   0.177E+00    0.430E-02
RMM:   2    -0.670272602545E+03   -0.96161E-03   -0.98312E-03 15869   0.222E-01    0.258E-02
RMM:   3    -0.670272798662E+03   -0.19612E-03   -0.21512E-03 14426   0.771E-02    0.187E-02
RMM:   4    -0.670272871409E+03   -0.72748E-04   -0.82131E-04 11519   0.820E-02
     86 T=   305. E= -.66995712E+03 F= -.67027287E+03 E0= -.67027287E+03  EK= 0.34745E+01 SP= -.32E+01 SK= 0.14E-03 mag=     -0.000
       N       E                     dE             d eps       ncg     rms          rms(c)
DAV:   1    -0.670277886098E+03   -0.50874E-02   -0.27611E-02 19974   0.179E+00    0.461E-02
RMM:   2    -0.670278801632E+03   -0.91553E-03   -0.93731E-03 15847   0.210E-01    0.205E-02
RMM:   3    -0.670278995546E+03   -0.19391E-03   -0.20837E-03 13996   0.763E-02    0.164E-02
RMM:   4    -0.670279077690E+03   -0.82144E-04   -0.85142E-04 11382   0.830E-02
     87 T=   306. E= -.66995675E+03 F= -.67027908E+03 E0= -.67027908E+03  EK= 0.34852E+01 SP= -.32E+01 SK= 0.59E-04 mag=     -0.000
       N       E                     dE             d eps       ncg     rms          rms(c)
DAV:   1    -0.670285869047E+03   -0.68735E-02   -0.26757E-02 19473   0.179E+00    0.313E-02
RMM:   2    -0.670286839444E+03   -0.97040E-03   -0.97675E-03 15703   0.230E-01    0.284E-02
RMM:   3    -0.670287036164E+03   -0.19672E-03   -0.21945E-03 14755   0.772E-02    0.277E-02
RMM:   4    -0.670287106525E+03   -0.70361E-04   -0.81530E-04 11569   0.756E-02
     88 T=   307. E= -.66995613E+03 F= -.67028711E+03 E0= -.67028711E+03  EK= 0.34960E+01 SP= -.32E+01 SK= 0.70E-05 mag=     -0.000
       N       E                     dE             d eps       ncg     rms          rms(c)
DAV:   1    -0.670294884244E+03   -0.78481E-02   -0.27939E-02 18996   0.181E+00    0.406E-02
RMM:   2    -0.670295852180E+03   -0.96794E-03   -0.97214E-03 15887   0.220E-01    0.341E-02
RMM:   3    -0.670296060768E+03   -0.20859E-03   -0.22043E-03 14182   0.773E-02    0.351E-02
RMM:   4    -0.670296148294E+03   -0.87526E-04   -0.91851E-04 11413   0.813E-02
     89 T=   308. E= -.66995550E+03 F= -.67029615E+03 E0= -.67029615E+03  EK= 0.35056E+01 SP= -.32E+01 SK= 0.90E-05 mag=     -0.000
       N       E                     dE             d eps       ncg     rms          rms(c)
DAV:   1    -0.670304049634E+03   -0.79889E-02   -0.27387E-02 19509   0.181E+00    0.432E-02
RMM:   2    -0.670305003515E+03   -0.95388E-03   -0.95870E-03 15787   0.227E-01    0.417E-02
RMM:   3    -0.670305200882E+03   -0.19737E-03   -0.21790E-03 14336   0.762E-02    0.430E-02
RMM:   4    -0.670305265082E+03   -0.64200E-04   -0.78629E-04 11606   0.806E-02
     90 T=   309. E= -.66995479E+03 F= -.67030527E+03 E0= -.67030527E+03  EK= 0.35129E+01 SP= -.32E+01 SK= 0.84E-04 mag=     -0.000
       N       E                     dE             d eps       ncg     rms          rms(c)
DAV:   1    -0.670312439821E+03   -0.72389E-02   -0.27795E-02 19446   0.182E+00    0.392E-02
RMM:   2    -0.670313429838E+03   -0.99002E-03   -0.98099E-03 15878   0.217E-01    0.303E-02
RMM:   3    -0.670313645116E+03   -0.21528E-03   -0.22807E-03 14259   0.780E-02    0.281E-02
RMM:   4    -0.670313736260E+03   -0.91144E-04   -0.93418E-04 11467   0.803E-02
     91 T=   309. E= -.66995406E+03 F= -.67031374E+03 E0= -.67031374E+03  EK= 0.35168E+01 SP= -.32E+01 SK= 0.25E-03 mag=      0.000
       N       E                     dE             d eps       ncg     rms          rms(c)
DAV:   1    -0.670319773031E+03   -0.61279E-02   -0.28089E-02 19749   0.182E+00    0.343E-02
RMM:   2    -0.670320719060E+03   -0.94603E-03   -0.95780E-03 15715   0.227E-01    0.171E-02
RMM:   3    -0.670320926334E+03   -0.20727E-03   -0.22029E-03 14015   0.768E-02    0.141E-02
RMM:   4    -0.670321017949E+03   -0.91615E-04   -0.94213E-04 11367   0.823E-02
     92 T=   309. E= -.66995347E+03 F= -.67032102E+03 E0= -.67032102E+03  EK= 0.35165E+01 SP= -.31E+01 SK= 0.50E-03 mag=      0.000
       N       E                     dE             d eps       ncg     rms          rms(c)
DAV:   1    -0.670325646343E+03   -0.47200E-02   -0.28562E-02 19650   0.183E+00    0.403E-02
RMM:   2    -0.670326629176E+03   -0.98283E-03   -0.98733E-03 15835   0.227E-01    0.292E-02
RMM:   3    -0.670326833381E+03   -0.20420E-03   -0.22620E-03 14241   0.781E-02    0.215E-02
RMM:   4    -0.670326911506E+03   -0.78124E-04   -0.87046E-04 11485   0.820E-02
     93 T=   309. E= -.66995298E+03 F= -.67032691E+03 E0= -.67032691E+03  EK= 0.35120E+01 SP= -.31E+01 SK= 0.83E-03 mag=      0.000
       N       E                     dE             d eps       ncg     rms          rms(c)
DAV:   1    -0.670330577155E+03   -0.37438E-02   -0.29657E-02 19749   0.184E+00    0.548E-02
RMM:   2    -0.670331602525E+03   -0.10254E-02   -0.10160E-02 15829   0.221E-01    0.487E-02
RMM:   3    -0.670331815288E+03   -0.21276E-03   -0.22757E-03 14124   0.766E-02    0.469E-02
RMM:   4    -0.670331890266E+03   -0.74979E-04   -0.86677E-04 11468   0.828E-02
     94 T=   308. E= -.66995258E+03 F= -.67033189E+03 E0= -.67033189E+03  EK= 0.35039E+01 SP= -.31E+01 SK= 0.12E-02 mag=     -0.000
       N       E                     dE             d eps       ncg     rms          rms(c)
DAV:   1    -0.670335435336E+03   -0.36200E-02   -0.30562E-02 19140   0.183E+00    0.112E-01
RMM:   2    -0.670336562035E+03   -0.11267E-02   -0.11413E-02 15830   0.235E-01    0.105E-01
RMM:   3    -0.670336792066E+03   -0.23003E-03   -0.24602E-03 14521   0.814E-02    0.105E-01
RMM:   4    -0.670336901321E+03   -0.10926E-03   -0.99960E-04 11784   0.840E-02    0.108E-01
RMM:   5    -0.670336983376E+03   -0.82054E-04   -0.81734E-04  9960   0.535E-02
     95 T=   307. E= -.66995252E+03 F= -.67033698E+03 E0= -.67033698E+03  EK= 0.34930E+01 SP= -.31E+01 SK= 0.16E-02 mag=     -0.001
       N       E                     dE             d eps       ncg     rms          rms(c)
DAV:   1    -0.670342193554E+03   -0.52922E-02   -0.30524E-02 19617   0.183E+00    0.240E-01
RMM:   2    -0.670342985325E+03   -0.79177E-03   -0.10045E-02 15673   0.239E-01    0.206E-01
RMM:   3    -0.670343046247E+03   -0.60922E-04   -0.23136E-03 14759   0.813E-02    0.185E-01
RMM:   4    -0.670342975169E+03    0.71078E-04   -0.99786E-04 12802   0.866E-02
     96 T=   306. E= -.66995301E+03 F= -.67034298E+03 E0= -.67034298E+03  EK= 0.34804E+01 SP= -.31E+01 SK= 0.21E-02 mag=     -0.001
       N       E                     dE             d eps       ncg     rms          rms(c)
DAV:   1    -0.670349587473E+03   -0.65412E-02   -0.34657E-02 20403   0.185E+00    0.205E-01
RMM:   2    -0.670350864774E+03   -0.12773E-02   -0.14549E-02 15847   0.248E-01    0.168E-01
RMM:   3    -0.670351023735E+03   -0.15896E-03   -0.29582E-03 15874   0.914E-02    0.144E-01
RMM:   4    -0.670351004135E+03    0.19600E-04   -0.97856E-04 12712   0.909E-02
     97 T=   305. E= -.66995344E+03 F= -.67035100E+03 E0= -.67035100E+03  EK= 0.34681E+01 SP= -.31E+01 SK= 0.24E-02 mag=     -0.001
       N       E                     dE             d eps       ncg     rms          rms(c)
DAV:   1    -0.670361284476E+03   -0.10261E-01   -0.43648E-02 21795   0.186E+00    0.187E-01
RMM:   2    -0.670362677481E+03   -0.13930E-02   -0.14913E-02 15392   0.280E-01    0.118E-01
RMM:   3    -0.670362716313E+03   -0.38832E-04   -0.36813E-03 15697   0.101E-01    0.650E-02
RMM:   4    -0.670362791765E+03   -0.75451E-04   -0.11506E-03 12647   0.892E-02    0.491E-02
RMM:   5    -0.670362852756E+03   -0.60992E-04   -0.85362E-04 11801   0.740E-02
     98 T=   304. E= -.66995320E+03 F= -.67036285E+03 E0= -.67036285E+03  EK= 0.34589E+01 SP= -.31E+01 SK= 0.28E-02 mag=     -0.000
       N       E                     dE             d eps       ncg     rms          rms(c)
DAV:   1    -0.670377771684E+03   -0.14980E-01   -0.34165E-02 20193   0.187E+00    0.119E-01
RMM:   2    -0.670379028366E+03   -0.12567E-02   -0.13518E-02 15665   0.257E-01    0.908E-02
RMM:   3    -0.670379255099E+03   -0.22673E-03   -0.24959E-03 14599   0.854E-02    0.922E-02
RMM:   4    -0.670379310206E+03   -0.55106E-04   -0.99136E-04 12011   0.902E-02
     99 T=   304. E= -.66995208E+03 F= -.67037931E+03 E0= -.67037931E+03  EK= 0.34538E+01 SP= -.30E+01 SK= 0.31E-02 mag=      0.000
       N       E                     dE             d eps       ncg     rms          rms(c)
DAV:   1    -0.670400182514E+03   -0.20927E-01   -0.34450E-02 19281   0.186E+00    0.193E-01
RMM:   2    -0.670400816646E+03   -0.63413E-03   -0.11520E-02 15931   0.243E-01    0.160E-01
RMM:   3    -0.670400937203E+03   -0.12056E-03   -0.25985E-03 14767   0.831E-02    0.141E-01
RMM:   4    -0.670400908640E+03    0.28563E-04   -0.97492E-04 12719   0.864E-02
    100 T=   304. E= -.66995050E+03 F= -.67040091E+03 E0= -.67040091E+03  EK= 0.34532E+01 SP= -.30E+01 SK= 0.34E-02 mag=     -0.000
