       N       E                     dE             d eps       ncg     rms          rms(c)
DAV:   1     0.665143985288E+04    0.66514E+04   -0.17165E+05 11232   0.159E+03
DAV:   2     0.149615585258E+04   -0.51553E+04   -0.47043E+04 11664   0.395E+02
DAV:   3    -0.500720675969E+03   -0.19969E+04   -0.18535E+04 15840   0.219E+02
DAV:   4    -0.837976535568E+03   -0.33726E+03   -0.33431E+03 18912   0.984E+01
DAV:   5    -0.851928935290E+03   -0.13952E+02   -0.13900E+02 18864   0.238E+01    0.138E+02
RMM:   6    -0.606699496427E+03    0.24523E+03   -0.11440E+03 15213   0.533E+01    0.280E+01
RMM:   7    -0.656901863813E+03   -0.50202E+02   -0.31370E+02 16096   0.239E+01    0.375E+01
RMM:   8    -0.661748455220E+03   -0.48466E+01   -0.35420E+01 16856   0.843E+00    0.310E+01
RMM:   9    -0.689596482987E+03   -0.27848E+02   -0.36179E+02 18861   0.328E+01    0.532E+01
RMM:  10    -0.704234110602E+03   -0.14638E+02   -0.33710E+01 15277   0.945E+00    0.454E+01
RMM:  11    -0.673259388969E+03    0.30975E+02   -0.17354E+02 18693   0.197E+01    0.493E+00
RMM:  12    -0.673537656166E+03   -0.27827E+00   -0.60866E+00 15618   0.373E+00    0.367E+00
RMM:  13    -0.673539495875E+03   -0.18397E-02   -0.99712E-01 17187   0.160E+00    0.315E+00
RMM:  14    -0.673572519747E+03   -0.33024E-01   -0.34807E-01 18466   0.781E-01    0.281E+00
RMM:  15    -0.673416421364E+03    0.15610E+00   -0.13561E+00 16323   0.194E+00    0.222E+00
RMM:  16    -0.673414107748E+03    0.23136E-02   -0.14426E-01 15181   0.769E-01    0.467E-01
RMM:  17    -0.673426904325E+03   -0.12797E-01   -0.98104E-02 16147   0.468E-01    0.992E-01
RMM:  18    -0.673419476170E+03    0.74282E-02   -0.22902E-02 12742   0.341E-01    0.400E-01
RMM:  19    -0.673418088722E+03    0.13874E-02   -0.20712E-02 15488   0.222E-01    0.129E-01
RMM:  20    -0.673418503848E+03   -0.41513E-03   -0.32249E-03 14956   0.133E-01    0.194E-01
RMM:  21    -0.673418519069E+03   -0.15222E-04   -0.35392E-03 15377   0.105E-01    0.797E-02
RMM:  22    -0.673418660310E+03   -0.14124E-03   -0.10662E-03 12532   0.788E-02    0.144E-01
RMM:  23    -0.673418710847E+03   -0.50537E-04   -0.13633E-03 11319   0.683E-02    0.913E-02
RMM:  24    -0.673418834693E+03   -0.12385E-03   -0.16444E-03 11961   0.622E-02    0.512E-02
RMM:  25    -0.673418869255E+03   -0.34562E-04   -0.62475E-04  9528   0.563E-02
      1 T=   300. E= -.67000598E+03 F= -.67341887E+03 E0= -.67341887E+03  EK= 0.34129E+01 SP= 0.00E+00 SK= 0.00E+00 mag=      0.000
       N       E                     dE             d eps       ncg     rms          rms(c)
DAV:   1    -0.673356658939E+03    0.62176E-01   -0.16095E+01 14496   0.717E+00    0.788E-01
RMM:   2    -0.673401371812E+03   -0.44713E-01   -0.49252E-01 15329   0.179E+00    0.990E-01
RMM:   3    -0.673414659402E+03   -0.13288E-01   -0.86367E-02 15284   0.582E-01    0.806E-01
RMM:   4    -0.673403766884E+03    0.10893E-01   -0.22061E-02 15001   0.318E-01    0.602E-01
RMM:   5    -0.673406348910E+03   -0.25820E-02   -0.94001E-02 15247   0.545E-01    0.541E-01
RMM:   6    -0.673403071391E+03    0.32775E-02   -0.88124E-03 13500   0.238E-01    0.340E-01
RMM:   7    -0.673401767237E+03    0.13042E-02   -0.90935E-03 14051   0.214E-01    0.864E-02
RMM:   8    -0.673401990711E+03   -0.22347E-03   -0.21781E-03 13567   0.793E-02    0.908E-02
RMM:   9    -0.673401941105E+03    0.49606E-04   -0.85041E-04 10471   0.890E-02
      2 T=   298. E= -.67000792E+03 F= -.67340194E+03 E0= -.67340194E+03  EK= 0.33940E+01 SP= 0.12E-04 SK= 0.34E-08 mag=     -0.000
       N       E                     dE             d eps       ncg     rms          rms(c)
DAV:   1    -0.673342136109E+03    0.59855E-01   -0.15004E-01 20016   0.237E+00    0.282E-01
RMM:   2    -0.673347238776E+03   -0.51027E-02   -0.55078E-02 15059   0.507E-01    0.128E-01
RMM:   3    -0.673348062650E+03   -0.82387E-03   -0.91151E-03 15303   0.179E-01    0.275E-01
RMM:   4    -0.673347899414E+03    0.16324E-03   -0.23600E-03 14182   0.105E-01    0.117E-01
RMM:   5    -0.673347950996E+03   -0.51582E-04   -0.10237E-03 11676   0.666E-02    0.457E-02
RMM:   6    -0.673347983158E+03   -0.32162E-04   -0.34846E-04  8468   0.579E-02
      3 T=   294. E= -.67000886E+03 F= -.67334798E+03 E0= -.67334798E+03  EK= 0.33395E+01 SP= -.43E-03 SK= 0.48E-05 mag=      0.000
       N       E                     dE             d eps       ncg     rms          rms(c)
DAV:   1    -0.673253278422E+03    0.94673E-01   -0.25223E-01 19008   0.273E+00    0.361E-01
RMM:   2    -0.673260276846E+03   -0.69984E-02   -0.66519E-02 15017   0.596E-01    0.336E-01
RMM:   3    -0.673259333006E+03    0.94384E-03   -0.12944E-02 15667   0.208E-01    0.130E-01
RMM:   4    -0.673259637862E+03   -0.30486E-03   -0.31129E-03 13514   0.869E-02    0.132E-01
RMM:   5    -0.673259502555E+03    0.13531E-03   -0.10557E-03 11215   0.111E-01    0.738E-02
RMM:   6    -0.673259532856E+03   -0.30302E-04   -0.12887E-03 12063   0.752E-02    0.243E-02
RMM:   7    -0.673259570168E+03   -0.37312E-04   -0.22081E-04  7686   0.519E-02
      4 T=   286. E= -.67000829E+03 F= -.67325957E+03 E0= -.67325957E+03  EK= 0.32539E+01 SP= -.27E-02 SK= 0.76E-04 mag=      0.000
       N       E                     dE             d eps       ncg     rms          rms(c)
DAV:   1    -0.673137605029E+03    0.12193E+00   -0.85915E-02 19905   0.208E+00    0.108E-01
RMM:   2    -0.673139831819E+03   -0.22268E-02   -0.23440E-02 15136   0.395E-01    0.492E-02
RMM:   3    -0.673140251240E+03   -0.41942E-03   -0.45025E-03 15161   0.112E-01    0.623E-02
RMM:   4    -0.673140299845E+03   -0.48605E-04   -0.96743E-04 12546   0.991E-02
      5 T=   276. E= -.67000713E+03 F= -.67314030E+03 E0= -.67314030E+03  EK= 0.31416E+01 SP= -.89E-02 SK= 0.45E-03 mag=     -0.000
       N       E                     dE             d eps       ncg     rms          rms(c)
DAV:   1    -0.672993334765E+03    0.14692E+00   -0.47694E-02 18432   0.195E+00    0.126E-01
RMM:   2    -0.672995043593E+03   -0.17088E-02   -0.19348E-02 15272   0.356E-01    0.903E-02
RMM:   3    -0.672995395280E+03   -0.35169E-03   -0.39940E-03 14995   0.101E-01    0.824E-02
RMM:   4    -0.672995455695E+03   -0.60415E-04   -0.90521E-04 11798   0.885E-02
      6 T=   265. E= -.67000584E+03 F= -.67299546E+03 E0= -.67299546E+03  EK= 0.30097E+01 SP= -.22E-01 SK= 0.17E-02 mag=      0.001
       N       E                     dE             d eps       ncg     rms          rms(c)
DAV:   1    -0.672829468882E+03    0.16593E+00   -0.40301E-02 18114   0.186E+00    0.101E-01
RMM:   2    -0.672830898621E+03   -0.14297E-02   -0.14903E-02 15098   0.307E-01    0.828E-02
RMM:   3    -0.672831170624E+03   -0.27200E-03   -0.29551E-03 14153   0.911E-02    0.779E-02
RMM:   4    -0.672831212613E+03   -0.41989E-04   -0.67905E-04 10891   0.849E-02
      7 T=   252. E= -.67000498E+03 F= -.67283121E+03 E0= -.67283121E+03  EK= 0.28660E+01 SP= -.45E-01 SK= 0.49E-02 mag=     -0.001
       N       E                     dE             d eps       ncg     rms          rms(c)
DAV:   1    -0.672652876639E+03    0.17829E+00   -0.33731E-02 17874   0.177E+00    0.182E-01
RMM:   2    -0.672653991966E+03   -0.11153E-02   -0.14169E-02 15297   0.309E-01    0.685E-02
RMM:   3    -0.672654309035E+03   -0.31707E-03   -0.33328E-03 15792   0.959E-02    0.574E-02
RMM:   4    -0.672654340357E+03   -0.31322E-04   -0.86645E-04 12583   0.743E-02
      8 T=   239. E= -.67000467E+03 F= -.67265434E+03 E0= -.67265434E+03  EK= 0.27194E+01 SP= -.81E-01 SK= 0.11E-01 mag=     -0.001
       N       E                     dE             d eps       ncg     rms          rms(c)
DAV:   1    -0.672470151251E+03    0.18416E+00   -0.29450E-02 17808   0.174E+00    0.832E-02
RMM:   2    -0.672471595317E+03   -0.14441E-02   -0.14759E-02 15439   0.288E-01    0.617E-02
RMM:   3    -0.672471821973E+03   -0.22666E-03   -0.29295E-03 15568   0.922E-02    0.514E-02
RMM:   4    -0.672471898856E+03   -0.76883E-04   -0.85569E-04 12098   0.730E-02
      9 T=   227. E= -.67000435E+03 F= -.67247190E+03 E0= -.67247190E+03  EK= 0.25790E+01 SP= -.13E+00 SK= 0.24E-01 mag=     -0.001
       N       E                     dE             d eps       ncg     rms          rms(c)
DAV:   1    -0.672288834227E+03    0.18299E+00   -0.32356E-02 18153   0.168E+00    0.118E-01
RMM:   2    -0.672290070878E+03   -0.12367E-02   -0.14936E-02 15206   0.275E-01    0.921E-02
RMM:   3    -0.672290243688E+03   -0.17281E-03   -0.26586E-03 14370   0.958E-02    0.410E-02
RMM:   4    -0.672290293965E+03   -0.50277E-04   -0.71605E-04 11017   0.796E-02
     10 T=   216. E= -.67000329E+03 F= -.67229029E+03 E0= -.67229029E+03  EK= 0.24533E+01 SP= -.21E+00 SK= 0.43E-01 mag=     -0.000
       N       E                     dE             d eps       ncg     rms          rms(c)
DAV:   1    -0.672114002311E+03    0.17624E+00   -0.26765E-02 18213   0.162E+00    0.112E-01
RMM:   2    -0.672115039157E+03   -0.10368E-02   -0.12428E-02 15370   0.261E-01    0.476E-02
RMM:   3    -0.672115281476E+03   -0.24232E-03   -0.27574E-03 15285   0.876E-02    0.438E-02
RMM:   4    -0.672115341072E+03   -0.59597E-04   -0.75798E-04 11427   0.828E-02
     11 T=   206. E= -.67000232E+03 F= -.67211534E+03 E0= -.67211534E+03  EK= 0.23484E+01 SP= -.31E+00 SK= 0.72E-01 mag=      0.000
       N       E                     dE             d eps       ncg     rms          rms(c)
DAV:   1    -0.671950558396E+03    0.16472E+00   -0.23941E-02 18114   0.157E+00    0.769E-02
RMM:   2    -0.671951791772E+03   -0.12334E-02   -0.13127E-02 15297   0.274E-01    0.759E-02
RMM:   3    -0.671952050999E+03   -0.25923E-03   -0.26762E-03 15250   0.867E-02    0.960E-02
RMM:   4    -0.671952048231E+03    0.27680E-05   -0.69041E-04 11261   0.828E-02
     12 T=   200. E= -.67000216E+03 F= -.67195205E+03 E0= -.67195205E+03  EK= 0.22695E+01 SP= -.43E+00 SK= 0.11E+00 mag=      0.001
       N       E                     dE             d eps       ncg     rms          rms(c)
DAV:   1    -0.671802041384E+03    0.15001E+00   -0.27128E-02 19170   0.156E+00    0.136E-01
RMM:   2    -0.671803719742E+03   -0.16784E-02   -0.19250E-02 15172   0.282E-01    0.175E-01
RMM:   3    -0.671803635502E+03    0.84240E-04   -0.24037E-03 14146   0.100E-01    0.107E-01
RMM:   4    -0.671803608753E+03    0.26749E-04   -0.66432E-04 11279   0.797E-02
     13 T=   195. E= -.67000161E+03 F= -.67180361E+03 E0= -.67180361E+03  EK= 0.22222E+01 SP= -.59E+00 SK= 0.17E+00 mag=      0.001
       N       E                     dE             d eps       ncg     rms          rms(c)
DAV:   1    -0.671670124474E+03    0.13351E+00   -0.28353E-02 19524   0.152E+00    0.218E-01
RMM:   2    -0.671671469391E+03   -0.13449E-02   -0.19175E-02 15333   0.273E-01    0.657E-02
RMM:   3    -0.671671771898E+03   -0.30251E-03   -0.27416E-03 14672   0.997E-02    0.718E-02
RMM:   4    -0.671671829318E+03   -0.57420E-04   -0.84336E-04 11503   0.919E-02
     14 T=   194. E= -.67000089E+03 F= -.67167183E+03 E0= -.67167183E+03  EK= 0.22096E+01 SP= -.77E+00 SK= 0.23E+00 mag=      0.001
       N       E                     dE             d eps       ncg     rms          rms(c)
DAV:   1    -0.671556194764E+03    0.11558E+00   -0.20389E-02 17940   0.152E+00    0.158E-01
RMM:   2    -0.671556732558E+03   -0.53779E-03   -0.11140E-02 15368   0.246E-01    0.812E-02
RMM:   3    -0.671556948455E+03   -0.21590E-03   -0.19943E-03 14521   0.805E-02    0.619E-02
RMM:   4    -0.671556995973E+03   -0.47518E-04   -0.67924E-04 10523   0.753E-02
     15 T=   196. E= -.67000076E+03 F= -.67155700E+03 E0= -.67155700E+03  EK= 0.22330E+01 SP= -.98E+00 SK= 0.30E+00 mag=     -0.002
       N       E                     dE             d eps       ncg     rms          rms(c)
DAV:   1    -0.671456256045E+03    0.10069E+00   -0.25532E-02 19746   0.154E+00    0.164E-01
RMM:   2    -0.671457371248E+03   -0.11152E-02   -0.12229E-02 15355   0.237E-01    0.589E-02
RMM:   3    -0.671457484663E+03   -0.11342E-03   -0.20580E-03 15197   0.871E-02    0.461E-02
RMM:   4    -0.671457532131E+03   -0.47467E-04   -0.67307E-04 10555   0.624E-02
     16 T=   202. E= -.67000036E+03 F= -.67145753E+03 E0= -.67145753E+03  EK= 0.22940E+01 SP= -.12E+01 SK= 0.39E+00 mag=     -0.000
       N       E                     dE             d eps       ncg     rms          rms(c)
DAV:   1    -0.671369541724E+03    0.87943E-01   -0.21259E-02 18642   0.158E+00    0.164E-01
RMM:   2    -0.671370301882E+03   -0.76016E-03   -0.12819E-02 15326   0.247E-01    0.541E-02
RMM:   3    -0.671370517532E+03   -0.21565E-03   -0.23946E-03 13949   0.827E-02    0.382E-02
RMM:   4    -0.671370566567E+03   -0.49035E-04   -0.65041E-04 10812   0.966E-02
     17 T=   210. E= -.66999955E+03 F= -.67137057E+03 E0= -.67137057E+03  EK= 0.23928E+01 SP= -.15E+01 SK= 0.47E+00 mag=      0.000
       N       E                     dE             d eps       ncg     rms          rms(c)
DAV:   1    -0.671290842170E+03    0.79675E-01   -0.20740E-02 16983   0.163E+00    0.115E-01
RMM:   2    -0.671291695855E+03   -0.85369E-03   -0.12082E-02 15479   0.251E-01    0.695E-02
RMM:   3    -0.671291899708E+03   -0.20385E-03   -0.22197E-03 15249   0.805E-02    0.847E-02
RMM:   4    -0.671291947284E+03   -0.47576E-04   -0.76468E-04 10913   0.710E-02
     18 T=   222. E= -.66999897E+03 F= -.67129195E+03 E0= -.67129195E+03  EK= 0.25271E+01 SP= -.18E+01 SK= 0.55E+00 mag=     -0.000
       N       E                     dE             d eps       ncg     rms          rms(c)
DAV:   1    -0.671215716710E+03    0.76183E-01   -0.22543E-02 18387   0.168E+00    0.186E-01
RMM:   2    -0.671216181561E+03   -0.46485E-03   -0.14138E-02 15406   0.264E-01    0.684E-02
RMM:   3    -0.671216459097E+03   -0.27754E-03   -0.29858E-03 15623   0.904E-02    0.544E-02
RMM:   4    -0.671216525425E+03   -0.66328E-04   -0.74837E-04 11111   0.762E-02
     19 T=   237. E= -.66999866E+03 F= -.67121653E+03 E0= -.67121653E+03  EK= 0.26942E+01 SP= -.21E+01 SK= 0.63E+00 mag=     -0.003
       N       E                     dE             d eps       ncg     rms          rms(c)
DAV:   1    -0.671138513550E+03    0.77946E-01   -0.23808E-02 18480   0.175E+00    0.270E-01
RMM:   2    -0.671138362154E+03    0.15140E-03   -0.16056E-02 15289   0.287E-01    0.101E-01
RMM:   3    -0.671138576083E+03   -0.21393E-03   -0.30254E-03 15219   0.922E-02    0.569E-02
RMM:   4    -0.671138622031E+03   -0.45948E-04   -0.84448E-04 11928   0.854E-02
     20 T=   254. E= -.66999846E+03 F= -.67113862E+03 E0= -.67113862E+03  EK= 0.28903E+01 SP= -.24E+01 SK= 0.69E+00 mag=     -0.001
       N       E                     dE             d eps       ncg     rms          rms(c)
DAV:   1    -0.671052185373E+03    0.86391E-01   -0.28124E-02 18438   0.183E+00    0.154E-01
RMM:   2    -0.671052778734E+03   -0.59336E-03   -0.11148E-02 15480   0.255E-01    0.108E-01
RMM:   3    -0.671052859989E+03   -0.81255E-04   -0.23282E-03 15966   0.841E-02    0.753E-02
RMM:   4    -0.671052882518E+03   -0.22529E-04   -0.70857E-04 11711   0.633E-02
     21 T=   273. E= -.66999853E+03 F= -.67105288E+03 E0= -.67105288E+03  EK= 0.31102E+01 SP= -.28E+01 SK= 0.73E+00 mag=      0.001
       N       E                     dE             d eps       ncg     rms          rms(c)
DAV:   1    -0.670952683460E+03    0.10018E+00   -0.29912E-02 19716   0.190E+00    0.161E-01
RMM:   2    -0.670953752868E+03   -0.10694E-02   -0.16099E-02 15399   0.273E-01    0.883E-02
RMM:   3    -0.670954036445E+03   -0.28358E-03   -0.33938E-03 15106   0.934E-02    0.649E-02
RMM:   4    -0.670954095439E+03   -0.58994E-04   -0.93728E-04 12282   0.972E-02
     22 T=   294. E= -.66999880E+03 F= -.67095410E+03 E0= -.67095410E+03  EK= 0.33474E+01 SP= -.31E+01 SK= 0.75E+00 mag=      0.004
       N       E                     dE             d eps       ncg     rms          rms(c)
DAV:   1    -0.670838595854E+03    0.11544E+00   -0.30976E-02 17826   0.200E+00    0.271E-01
RMM:   2    -0.670838906925E+03   -0.31107E-03   -0.12811E-02 15351   0.283E-01    0.228E-01
RMM:   3    -0.670838583270E+03    0.32366E-03   -0.33002E-03 15898   0.976E-02    0.171E-01
RMM:   4    -0.670838418979E+03    0.16429E-03   -0.14592E-03 14145   0.800E-02    0.133E-01
RMM:   5    -0.670838379109E+03    0.39870E-04   -0.11906E-03 13720   0.703E-02    0.106E-01
RMM:   6    -0.670838393013E+03   -0.13904E-04   -0.69323E-04 10736   0.600E-02
     23 T=   316. E= -.66999892E+03 F= -.67083839E+03 E0= -.67083839E+03  EK= 0.35947E+01 SP= -.35E+01 SK= 0.74E+00 mag=      0.003
       N       E                     dE             d eps       ncg     rms          rms(c)
DAV:   1    -0.670702436854E+03    0.13594E+00   -0.39943E-02 19440   0.205E+00    0.218E-01
RMM:   2    -0.670702714904E+03   -0.27805E-03   -0.14761E-02 15369   0.301E-01    0.113E-01
RMM:   3    -0.670702944049E+03   -0.22915E-03   -0.33299E-03 15719   0.998E-02    0.859E-02
RMM:   4    -0.670703002725E+03   -0.58675E-04   -0.78366E-04 11383   0.666E-02
     24 T=   338. E= -.66999869E+03 F= -.67070300E+03 E0= -.67070300E+03  EK= 0.38438E+01 SP= -.39E+01 SK= 0.71E+00 mag=      0.000
       N       E                     dE             d eps       ncg     rms          rms(c)
DAV:   1    -0.670545550190E+03    0.15739E+00   -0.37360E-02 17601   0.211E+00    0.731E-02
RMM:   2    -0.670547097355E+03   -0.15472E-02   -0.15871E-02 15377   0.316E-01    0.939E-02
RMM:   3    -0.670547321425E+03   -0.22407E-03   -0.30929E-03 16426   0.934E-02    0.925E-02
RMM:   4    -0.670547324101E+03   -0.26761E-05   -0.96629E-04 13104   0.782E-02
     25 T=   359. E= -.66999872E+03 F= -.67054732E+03 E0= -.67054732E+03  EK= 0.40853E+01 SP= -.42E+01 SK= 0.66E+00 mag=     -0.002
       N       E                     dE             d eps       ncg     rms          rms(c)
DAV:   1    -0.670370530158E+03    0.17679E+00   -0.40986E-02 17985   0.218E+00    0.111E-01
RMM:   2    -0.670372208880E+03   -0.16787E-02   -0.19057E-02 15467   0.321E-01    0.811E-02
RMM:   3    -0.670372480733E+03   -0.27185E-03   -0.34545E-03 15313   0.972E-02    0.761E-02
RMM:   4    -0.670372464658E+03    0.16074E-04   -0.72014E-04 11409   0.854E-02
     26 T=   379. E= -.66999909E+03 F= -.67037246E+03 E0= -.67037246E+03  EK= 0.43100E+01 SP= -.45E+01 SK= 0.58E+00 mag=     -0.001
       N       E                     dE             d eps       ncg     rms          rms(c)
DAV:   1    -0.670179097712E+03    0.19338E+00   -0.48715E-02 19635   0.221E+00    0.188E-01
RMM:   2    -0.670181116937E+03   -0.20192E-02   -0.22279E-02 15397   0.318E-01    0.103E-01
RMM:   3    -0.670181408321E+03   -0.29138E-03   -0.33543E-03 14602   0.100E-01    0.976E-02
RMM:   4    -0.670181408710E+03   -0.38890E-06   -0.80319E-04 11749   0.108E-01
     27 T=   396. E= -.66999965E+03 F= -.67018141E+03 E0= -.67018141E+03  EK= 0.45095E+01 SP= -.48E+01 SK= 0.49E+00 mag=      0.000
       N       E                     dE             d eps       ncg     rms          rms(c)
DAV:   1    -0.669976306217E+03    0.20510E+00   -0.47325E-02 19380   0.223E+00    0.139E-01
RMM:   2    -0.669978923792E+03   -0.26176E-02   -0.31536E-02 15365   0.357E-01    0.122E-01
RMM:   3    -0.669978817929E+03    0.10586E-03   -0.28211E-03 15036   0.111E-01    0.918E-02
RMM:   4    -0.669978772486E+03    0.45443E-04   -0.12681E-03 13801   0.879E-02    0.527E-02
RMM:   5    -0.669978835073E+03   -0.62587E-04   -0.92762E-04 13396   0.686E-02
     28 T=   411. E= -.67000032E+03 F= -.66997884E+03 E0= -.66997884E+03  EK= 0.46767E+01 SP= -.51E+01 SK= 0.40E+00 mag=      0.001
       N       E                     dE             d eps       ncg     rms          rms(c)
DAV:   1    -0.669768542730E+03    0.21023E+00   -0.44865E-02 18195   0.227E+00    0.183E-01
RMM:   2    -0.669769926718E+03   -0.13840E-02   -0.16741E-02 15441   0.324E-01    0.961E-02
RMM:   3    -0.669770131412E+03   -0.20469E-03   -0.39272E-03 16307   0.106E-01    0.593E-02
RMM:   4    -0.669770202568E+03   -0.71157E-04   -0.85550E-04 12568   0.706E-02
     29 T=   423. E= -.67000032E+03 F= -.66977020E+03 E0= -.66977020E+03  EK= 0.48064E+01 SP= -.53E+01 SK= 0.30E+00 mag=      0.000
       N       E                     dE             d eps       ncg     rms          rms(c)
DAV:   1    -0.669559999133E+03    0.21013E+00   -0.45707E-02 17697   0.225E+00    0.932E-02
RMM:   2    -0.669561439854E+03   -0.14407E-02   -0.16279E-02 15408   0.331E-01    0.430E-02
RMM:   3    -0.669561762643E+03   -0.32279E-03   -0.34449E-03 16526   0.988E-02    0.361E-02
RMM:   4    -0.669561847877E+03   -0.85235E-04   -0.98888E-04 12561   0.692E-02
     30 T=   430. E= -.66999995E+03 F= -.66956185E+03 E0= -.66956185E+03  EK= 0.48947E+01 SP= -.55E+01 SK= 0.21E+00 mag=      0.002
       N       E                     dE             d eps       ncg     rms          rms(c)
DAV:   1    -0.669357511042E+03    0.20425E+00   -0.47435E-02 19089   0.225E+00    0.976E-02
RMM:   2    -0.669359174744E+03   -0.16637E-02   -0.17458E-02 15389   0.322E-01    0.700E-02
RMM:   3    -0.669359458757E+03   -0.28401E-03   -0.32415E-03 15609   0.964E-02    0.658E-02
RMM:   4    -0.669359527031E+03   -0.68274E-04   -0.86981E-04 12153   0.860E-02
     31 T=   434. E= -.66999992E+03 F= -.66935953E+03 E0= -.66935953E+03  EK= 0.49392E+01 SP= -.57E+01 SK= 0.14E+00 mag=      0.000
       N       E                     dE             d eps       ncg     rms          rms(c)
DAV:   1    -0.669165995801E+03    0.19346E+00   -0.46133E-02 18468   0.224E+00    0.109E-01
RMM:   2    -0.669167525803E+03   -0.15300E-02   -0.18158E-02 15425   0.322E-01    0.488E-02
RMM:   3    -0.669167833923E+03   -0.30812E-03   -0.33538E-03 15596   0.957E-02    0.410E-02
RMM:   4    -0.669167896856E+03   -0.62933E-04   -0.89441E-04 12382   0.860E-02
     32 T=   434. E= -.66999996E+03 F= -.66916790E+03 E0= -.66916790E+03  EK= 0.49399E+01 SP= -.58E+01 SK= 0.75E-01 mag=     -0.001
       N       E                     dE             d eps       ncg     rms          rms(c)
DAV:   1    -0.668988655293E+03    0.17918E+00   -0.43229E-02 19266   0.222E+00    0.969E-02
RMM:   2    -0.668990242210E+03   -0.15869E-02   -0.17396E-02 15433   0.316E-01    0.574E-02
RMM:   3    -0.668990508481E+03   -0.26627E-03   -0.31595E-03 15914   0.929E-02    0.494E-02
RMM:   4    -0.668990570093E+03   -0.61612E-04   -0.89631E-04 12268   0.772E-02
     33 T=   431. E= -.66999969E+03 F= -.66899057E+03 E0= -.66899057E+03  EK= 0.48990E+01 SP= -.59E+01 SK= 0.33E-01 mag=      0.000
       N       E                     dE             d eps       ncg     rms          rms(c)
DAV:   1    -0.668827348901E+03    0.16316E+00   -0.41226E-02 18882   0.218E+00    0.537E-02
RMM:   2    -0.668828920075E+03   -0.15712E-02   -0.15971E-02 15413   0.304E-01    0.496E-02
RMM:   3    -0.668829264116E+03   -0.34404E-03   -0.33275E-03 15867   0.940E-02    0.732E-02
RMM:   4    -0.668829233387E+03    0.30729E-04   -0.76796E-04 12521   0.798E-02
     34 T=   424. E= -.66999893E+03 F= -.66882923E+03 E0= -.66882923E+03  EK= 0.48197E+01 SP= -.60E+01 SK= 0.88E-02 mag=     -0.000
       N       E                     dE             d eps       ncg     rms          rms(c)
DAV:   1    -0.668681958656E+03    0.14731E+00   -0.41009E-02 20229   0.215E+00    0.691E-02
RMM:   2    -0.668683663847E+03   -0.17052E-02   -0.17440E-02 15423   0.287E-01    0.527E-02
RMM:   3    -0.668683834389E+03   -0.17054E-03   -0.26919E-03 15703   0.902E-02    0.464E-02
RMM:   4    -0.668683857045E+03   -0.22656E-04   -0.77102E-04 12738   0.767E-02
     35 T=   414. E= -.66999800E+03 F= -.66868386E+03 E0= -.66868386E+03  EK= 0.47055E+01 SP= -.60E+01 SK= 0.12E-03 mag=      0.000
       N       E                     dE             d eps       ncg     rms          rms(c)
DAV:   1    -0.668551266025E+03    0.13257E+00   -0.35499E-02 19092   0.211E+00    0.770E-02
RMM:   2    -0.668552921337E+03   -0.16553E-02   -0.16550E-02 15495   0.292E-01    0.291E-02
RMM:   3    -0.668553229197E+03   -0.30786E-03   -0.31940E-03 15193   0.925E-02    0.327E-02
RMM:   4    -0.668553278343E+03   -0.49145E-04   -0.75036E-04 12330   0.942E-02
     36 T=   401. E= -.66999713E+03 F= -.66855328E+03 E0= -.66855328E+03  EK= 0.45611E+01 SP= -.60E+01 SK= 0.40E-02 mag=     -0.001
       N       E                     dE             d eps       ncg     rms          rms(c)
DAV:   1    -0.668433578738E+03    0.11965E+00   -0.32328E-02 19650   0.206E+00    0.639E-02
RMM:   2    -0.668435093309E+03   -0.15146E-02   -0.15603E-02 15412   0.284E-01    0.459E-02
RMM:   3    -0.668435306075E+03   -0.21277E-03   -0.26177E-03 15813   0.883E-02    0.458E-02
RMM:   4    -0.668435367805E+03   -0.61730E-04   -0.81970E-04 11915   0.721E-02
     37 T=   386. E= -.66999648E+03 F= -.66843537E+03 E0= -.66843537E+03  EK= 0.43917E+01 SP= -.60E+01 SK= 0.17E-01 mag=     -0.001
       N       E                     dE             d eps       ncg     rms          rms(c)
DAV:   1    -0.668325983752E+03    0.10932E+00   -0.27912E-02 17475   0.204E+00    0.900E-02
RMM:   2    -0.668327397522E+03   -0.14138E-02   -0.14572E-02 15560   0.281E-01    0.381E-02
RMM:   3    -0.668327657246E+03   -0.25972E-03   -0.24721E-03 16173   0.875E-02    0.343E-02
RMM:   4    -0.668327743384E+03   -0.86138E-04   -0.87165E-04 11898   0.632E-02
     38 T=   370. E= -.66999605E+03 F= -.66832774E+03 E0= -.66832774E+03  EK= 0.42034E+01 SP= -.59E+01 SK= 0.33E-01 mag=      0.000
       N       E                     dE             d eps       ncg     rms          rms(c)
DAV:   1    -0.668226872824E+03    0.10078E+00   -0.26654E-02 18885   0.199E+00    0.428E-02
RMM:   2    -0.668227978757E+03   -0.11059E-02   -0.11168E-02 15530   0.255E-01    0.335E-02
RMM:   3    -0.668228171511E+03   -0.19275E-03   -0.22501E-03 15692   0.810E-02    0.268E-02
RMM:   4    -0.668228229583E+03   -0.58071E-04   -0.72605E-04 11705   0.694E-02
     39 T=   352. E= -.66999559E+03 F= -.66822823E+03 E0= -.66822823E+03  EK= 0.40029E+01 SP= -.58E+01 SK= 0.51E-01 mag=      0.001
       N       E                     dE             d eps       ncg     rms          rms(c)
DAV:   1    -0.668133998982E+03    0.94173E-01   -0.24149E-02 18804   0.194E+00    0.423E-02
RMM:   2    -0.668135052786E+03   -0.10538E-02   -0.10569E-02 15568   0.244E-01    0.301E-02
RMM:   3    -0.668135244578E+03   -0.19179E-03   -0.21535E-03 15157   0.784E-02    0.196E-02
RMM:   4    -0.668135295854E+03   -0.51276E-04   -0.66608E-04 11886   0.768E-02
     40 T=   334. E= -.66999510E+03 F= -.66813530E+03 E0= -.66813530E+03  EK= 0.37971E+01 SP= -.57E+01 SK= 0.65E-01 mag=      0.001
       N       E                     dE             d eps       ncg     rms          rms(c)
DAV:   1    -0.668047280814E+03    0.87964E-01   -0.22656E-02 19140   0.190E+00    0.626E-02
RMM:   2    -0.668048334244E+03   -0.10534E-02   -0.10648E-02 15593   0.244E-01    0.669E-02
RMM:   3    -0.668048581205E+03   -0.24696E-03   -0.23325E-03 15205   0.808E-02    0.808E-02
RMM:   4    -0.668048544507E+03    0.36698E-04   -0.64425E-04 12193   0.794E-02
     41 T=   316. E= -.66999457E+03 F= -.66804854E+03 E0= -.66804854E+03  EK= 0.35929E+01 SP= -.56E+01 SK= 0.74E-01 mag=     -0.000
       N       E                     dE             d eps       ncg     rms          rms(c)
DAV:   1    -0.667966754612E+03    0.81827E-01   -0.23343E-02 19107   0.186E+00    0.103E-01
RMM:   2    -0.667968115188E+03   -0.13606E-02   -0.13894E-02 15544   0.255E-01    0.478E-02
RMM:   3    -0.667968332657E+03   -0.21747E-03   -0.23887E-03 14944   0.846E-02    0.381E-02
RMM:   4    -0.667968400223E+03   -0.67566E-04   -0.68643E-04 12049   0.898E-02
     42 T=   299. E= -.66999381E+03 F= -.66796840E+03 E0= -.66796840E+03  EK= 0.33971E+01 SP= -.55E+01 SK= 0.77E-01 mag=     -0.000
       N       E                     dE             d eps       ncg     rms          rms(c)
DAV:   1    -0.667895238891E+03    0.73094E-01   -0.23608E-02 19827   0.182E+00    0.663E-02
RMM:   2    -0.667896503765E+03   -0.12649E-02   -0.13191E-02 15456   0.246E-01    0.563E-02
RMM:   3    -0.667896714785E+03   -0.21102E-03   -0.22351E-03 14553   0.833E-02    0.705E-02
RMM:   4    -0.667896750458E+03   -0.35673E-04   -0.65348E-04 11738   0.944E-02
     43 T=   283. E= -.66999308E+03 F= -.66789675E+03 E0= -.66789675E+03  EK= 0.32164E+01 SP= -.54E+01 SK= 0.74E-01 mag=      0.000
       N       E                     dE             d eps       ncg     rms          rms(c)
DAV:   1    -0.667834914147E+03    0.61801E-01   -0.21038E-02 18885   0.177E+00    0.127E-01
RMM:   2    -0.667835909871E+03   -0.99572E-03   -0.13141E-02 15480   0.248E-01    0.436E-02
RMM:   3    -0.667836111465E+03   -0.20159E-03   -0.22208E-03 14875   0.843E-02    0.315E-02
RMM:   4    -0.667836170003E+03   -0.58538E-04   -0.72791E-04 11879   0.866E-02
     44 T=   269. E= -.66999220E+03 F= -.66783617E+03 E0= -.66783617E+03  EK= 0.30569E+01 SP= -.53E+01 SK= 0.65E-01 mag=      0.000
       N       E                     dE             d eps       ncg     rms          rms(c)
DAV:   1    -0.667789245424E+03    0.46866E-01   -0.21011E-02 18834   0.173E+00    0.137E-01
RMM:   2    -0.667789963700E+03   -0.71828E-03   -0.95582E-03 15488   0.231E-01    0.859E-02
RMM:   3    -0.667790086431E+03   -0.12273E-03   -0.21344E-03 15981   0.797E-02    0.578E-02
RMM:   4    -0.667790097491E+03   -0.11061E-04   -0.78083E-04 12629   0.697E-02
     45 T=   257. E= -.66999173E+03 F= -.66779010E+03 E0= -.66779010E+03  EK= 0.29238E+01 SP= -.52E+01 SK= 0.53E-01 mag=     -0.000
       N       E                     dE             d eps       ncg     rms          rms(c)
DAV:   1    -0.667761060316E+03    0.29026E-01   -0.24298E-02 19794   0.171E+00    0.857E-02
RMM:   2    -0.667761747283E+03   -0.68697E-03   -0.93111E-03 15426   0.232E-01    0.397E-02
RMM:   3    -0.667761919761E+03   -0.17248E-03   -0.19940E-03 15654   0.766E-02    0.293E-02
RMM:   4    -0.667761970790E+03   -0.51030E-04   -0.60741E-04 11902   0.699E-02
     46 T=   248. E= -.66999153E+03 F= -.66776197E+03 E0= -.66776197E+03  EK= 0.28219E+01 SP= -.51E+01 SK= 0.39E-01 mag=      0.000
       N       E                     dE             d eps       ncg     rms          rms(c)
DAV:   1    -0.667753822881E+03    0.80969E-02   -0.25298E-02 19905   0.170E+00    0.566E-02
RMM:   2    -0.667754947097E+03   -0.11242E-02   -0.11851E-02 15440   0.237E-01    0.664E-02
RMM:   3    -0.667755059270E+03   -0.11217E-03   -0.20016E-03 15679   0.807E-02    0.628E-02
RMM:   4    -0.667755023323E+03    0.35947E-04   -0.62467E-04 11984   0.766E-02
     47 T=   242. E= -.66999107E+03 F= -.66775502E+03 E0= -.66775502E+03  EK= 0.27556E+01 SP= -.50E+01 SK= 0.25E-01 mag=     -0.000
       N       E                     dE             d eps       ncg     rms          rms(c)
DAV:   1    -0.667771003530E+03   -0.15944E-01   -0.27632E-02 20196   0.168E+00    0.705E-02
RMM:   2    -0.667771973981E+03   -0.97045E-03   -0.10698E-02 15568   0.225E-01    0.662E-02
RMM:   3    -0.667772088325E+03   -0.11434E-03   -0.18326E-03 15994   0.789E-02    0.560E-02
RMM:   4    -0.667772119563E+03   -0.31238E-04   -0.66235E-04 12831   0.656E-02
     48 T=   240. E= -.66999020E+03 F= -.66777212E+03 E0= -.66777212E+03  EK= 0.27278E+01 SP= -.50E+01 SK= 0.14E-01 mag=     -0.001
       N       E                     dE             d eps       ncg     rms          rms(c)
DAV:   1    -0.667813856440E+03   -0.41768E-01   -0.26582E-02 19779   0.168E+00    0.530E-02
RMM:   2    -0.667814792727E+03   -0.93629E-03   -0.89621E-03 15408   0.228E-01    0.495E-02
RMM:   3    -0.667814961244E+03   -0.16852E-03   -0.18944E-03 15082   0.744E-02    0.443E-02
RMM:   4    -0.667815019300E+03   -0.58056E-04   -0.60483E-04 11810   0.769E-02
     49 T=   241. E= -.66998929E+03 F= -.66781502E+03 E0= -.66781502E+03  EK= 0.27394E+01 SP= -.49E+01 SK= 0.59E-02 mag=     -0.001
       N       E                     dE             d eps       ncg     rms          rms(c)
DAV:   1    -0.667883334488E+03   -0.68373E-01   -0.24452E-02 17877   0.169E+00    0.649E-02
RMM:   2    -0.667884090270E+03   -0.75578E-03   -0.83188E-03 15803   0.213E-01    0.530E-02
RMM:   3    -0.667884237915E+03   -0.14764E-03   -0.20072E-03 16631   0.777E-02    0.393E-02
RMM:   4    -0.667884293075E+03   -0.55160E-04   -0.73115E-04 12655   0.605E-02
     50 T=   245. E= -.66998868E+03 F= -.66788429E+03 E0= -.66788429E+03  EK= 0.27903E+01 SP= -.49E+01 SK= 0.14E-02 mag=     -0.001
       N       E                     dE             d eps       ncg     rms          rms(c)
DAV:   1    -0.667978440170E+03   -0.94202E-01   -0.26845E-02 18870   0.172E+00    0.680E-02
RMM:   2    -0.667979117868E+03   -0.67770E-03   -0.77363E-03 15477   0.214E-01    0.419E-02
RMM:   3    -0.667979296463E+03   -0.17860E-03   -0.20366E-03 16013   0.773E-02    0.395E-02
RMM:   4    -0.667979360543E+03   -0.64080E-04   -0.69351E-04 11807   0.625E-02
     51 T=   253. E= -.66998821E+03 F= -.66797936E+03 E0= -.66797936E+03  EK= 0.28790E+01 SP= -.49E+01 SK= 0.56E-05 mag=      0.000
       N       E                     dE             d eps       ncg     rms          rms(c)
DAV:   1    -0.668097027892E+03   -0.11773E+00   -0.27792E-02 18627   0.175E+00    0.507E-02
RMM:   2    -0.668097822883E+03   -0.79499E-03   -0.81682E-03 15536   0.220E-01    0.458E-02
RMM:   3    -0.668097992655E+03   -0.16977E-03   -0.18800E-03 14475   0.735E-02    0.374E-02
RMM:   4    -0.668098032221E+03   -0.39566E-04   -0.64670E-04 11960   0.823E-02
     52 T=   264. E= -.66998790E+03 F= -.66809803E+03 E0= -.66809803E+03  EK= 0.30022E+01 SP= -.49E+01 SK= 0.69E-03 mag=      0.001
       N       E                     dE             d eps       ncg     rms          rms(c)
DAV:   1    -0.668235169739E+03   -0.13718E+00   -0.30701E-02 19461   0.180E+00    0.443E-02
RMM:   2    -0.668236041215E+03   -0.87148E-03   -0.87400E-03 15663   0.214E-01    0.251E-02
RMM:   3    -0.668236231466E+03   -0.19025E-03   -0.20837E-03 14969   0.767E-02    0.189E-02
RMM:   4    -0.668236298807E+03   -0.67341E-04   -0.72035E-04 11946   0.796E-02
     53 T=   277. E= -.66998774E+03 F= -.66823630E+03 E0= -.66823630E+03  EK= 0.31542E+01 SP= -.49E+01 SK= 0.22E-02 mag=      0.002
       N       E                     dE             d eps       ncg     rms          rms(c)
DAV:   1    -0.668387619260E+03   -0.15139E+00   -0.30485E-02 19059   0.185E+00    0.503E-02
RMM:   2    -0.668388490408E+03   -0.87115E-03   -0.87834E-03 15668   0.220E-01    0.442E-02
RMM:   3    -0.668388676354E+03   -0.18595E-03   -0.19724E-03 14610   0.756E-02    0.459E-02
RMM:   4    -0.668388732781E+03   -0.56426E-04   -0.69345E-04 11750   0.794E-02
     54 T=   292. E= -.66998783E+03 F= -.66838873E+03 E0= -.66838873E+03  EK= 0.33267E+01 SP= -.49E+01 SK= 0.32E-02 mag=      0.001
       N       E                     dE             d eps       ncg     rms          rms(c)
DAV:   1    -0.668547424529E+03   -0.15875E+00   -0.32604E-02 18663   0.190E+00    0.986E-02
RMM:   2    -0.668548349452E+03   -0.92492E-03   -0.90544E-03 15876   0.215E-01    0.852E-02
RMM:   3    -0.668548569880E+03   -0.22043E-03   -0.20181E-03 14793   0.773E-02    0.864E-02
RMM:   4    -0.668548664817E+03   -0.94937E-04   -0.79911E-04 11925   0.803E-02
     55 T=   309. E= -.66998833E+03 F= -.66854866E+03 E0= -.66854866E+03  EK= 0.35095E+01 SP= -.50E+01 SK= 0.31E-02 mag=     -0.001
       N       E                     dE             d eps       ncg     rms          rms(c)
DAV:   1    -0.668707602641E+03   -0.15903E+00   -0.33593E-02 19317   0.196E+00    0.170E-01
RMM:   2    -0.668708424887E+03   -0.82225E-03   -0.90683E-03 15579   0.224E-01    0.169E-01
RMM:   3    -0.668708627306E+03   -0.20242E-03   -0.20806E-03 14620   0.784E-02    0.169E-01
RMM:   4    -0.668708634764E+03   -0.74582E-05   -0.76700E-04 12018   0.855E-02
     56 T=   324. E= -.66998954E+03 F= -.66870863E+03 E0= -.66870863E+03  EK= 0.36901E+01 SP= -.50E+01 SK= 0.20E-02 mag=     -0.001
       N       E                     dE             d eps       ncg     rms          rms(c)
DAV:   1    -0.668859472676E+03   -0.15085E+00   -0.36538E-02 20097   0.202E+00    0.259E-01
RMM:   2    -0.668861149871E+03   -0.16772E-02   -0.13346E-02 15633   0.242E-01    0.277E-01
RMM:   3    -0.668861501324E+03   -0.35145E-03   -0.25677E-03 14552   0.880E-02    0.294E-01
RMM:   4    -0.668861277137E+03    0.22419E-03   -0.90884E-04 12692   0.102E-01    0.280E-01
RMM:   5    -0.668861314642E+03   -0.37505E-04   -0.75553E-04 10893   0.583E-02
     57 T=   339. E= -.66999198E+03 F= -.66886131E+03 E0= -.66886131E+03  EK= 0.38555E+01 SP= -.50E+01 SK= 0.48E-03 mag=      0.003
       N       E                     dE             d eps       ncg     rms          rms(c)
DAV:   1    -0.668998017846E+03   -0.13674E+00   -0.36770E-02 19047   0.206E+00    0.506E-01
RMM:   2    -0.668999519673E+03   -0.15018E-02   -0.13336E-02 15550   0.257E-01    0.478E-01
RMM:   3    -0.668999697269E+03   -0.17760E-03   -0.23944E-03 14508   0.864E-02    0.464E-01
RMM:   4    -0.668999684774E+03    0.12496E-04   -0.73721E-04 12494   0.946E-02
     58 T=   351. E= -.66999568E+03 F= -.66899968E+03 E0= -.66899968E+03  EK= 0.39930E+01 SP= -.50E+01 SK= 0.97E-04 mag=      0.003
       N       E                     dE             d eps       ncg     rms          rms(c)
DAV:   1    -0.669120081265E+03   -0.12038E+00   -0.40920E-02 20037   0.207E+00    0.809E-01
RMM:   2    -0.669124535668E+03   -0.44544E-02   -0.19817E-02 15624   0.271E-01    0.919E-01
RMM:   3    -0.669125143458E+03   -0.60779E-03   -0.35565E-03 15382   0.103E-01    0.950E-01
RMM:   4    -0.669125889376E+03   -0.74592E-03   -0.13510E-03 13441   0.112E-01    0.971E-01
RMM:   5    -0.669128125035E+03   -0.22357E-02   -0.38100E-03 14727   0.125E-01    0.101E+00
RMM:   6    -0.669124372786E+03    0.37522E-02   -0.27925E-03 14968   0.103E-01    0.965E-01
RMM:   7    -0.669122588924E+03    0.17839E-02   -0.19097E-03 13951   0.935E-02    0.948E-01
RMM:   8    -0.669123410636E+03   -0.82171E-03   -0.41287E-04  9191   0.540E-02    0.965E-01
RMM:   9    -0.669123403419E+03    0.72165E-05   -0.26422E-04  8036   0.553E-02
     59 T=   360. E= -.67000643E+03 F= -.66912340E+03 E0= -.66912340E+03  EK= 0.40916E+01 SP= -.50E+01 SK= 0.24E-02 mag=     -0.008
       N       E                     dE             d eps       ncg     rms          rms(c)
DAV:   1    -0.669236060522E+03   -0.11265E+00   -0.42886E-02 19875   0.212E+00    0.192E+00
RMM:   2    -0.669234881820E+03    0.11787E-02   -0.25594E-02 15334   0.319E-01    0.167E+00
RMM:   3    -0.669233699222E+03    0.11826E-02   -0.52415E-03 15487   0.115E-01    0.162E+00
RMM:   4    -0.669226732546E+03    0.69667E-02   -0.67648E-03 14671   0.192E-01    0.152E+00
RMM:   5    -0.669225972395E+03    0.76015E-03   -0.26615E-03 14326   0.818E-02    0.147E+00
RMM:   6    -0.669223311262E+03    0.26611E-02   -0.13692E-03 12856   0.944E-02    0.142E+00
RMM:   7    -0.669215417332E+03    0.78939E-02   -0.80135E-03 17098   0.142E-01    0.121E+00
RMM:   8    -0.669208077242E+03    0.73401E-02   -0.12886E-02 17869   0.171E-01    0.919E-01
RMM:   9    -0.669203389820E+03    0.46874E-02   -0.19678E-02 19080   0.213E-01    0.640E-01
RMM:  10    -0.669201505286E+03    0.18845E-02   -0.24696E-02 19071   0.241E-01    0.563E-01
RMM:  11    -0.669204508938E+03   -0.30037E-02   -0.11366E-02 17756   0.153E-01    0.698E-01
RMM:  12    -0.669207174925E+03   -0.26660E-02   -0.48970E-03 15352   0.103E-01    0.813E-01
RMM:  13    -0.669206615824E+03    0.55910E-03   -0.44834E-04  9433   0.502E-02    0.805E-01
RMM:  14    -0.669206660195E+03   -0.44372E-04   -0.22420E-04  7768   0.577E-02
     60 T=   364. E= -.67000414E+03 F= -.66920666E+03 E0= -.66920666E+03  EK= 0.41419E+01 SP= -.49E+01 SK= 0.85E-02 mag=     -0.005
       N       E                     dE             d eps       ncg     rms          rms(c)
DAV:   1    -0.669483672001E+03   -0.27706E+00   -0.53270E-02 18528   0.295E+00    0.414E+00
RMM:   2    -0.669258433601E+03    0.22524E+00   -0.59166E-01 15254   0.137E+00    0.148E+00
RMM:   3    -0.669268308558E+03   -0.98750E-02   -0.10253E-01 16252   0.484E-01    0.125E+00
RMM:   4    -0.669267072178E+03    0.12364E-02   -0.34071E-02 16887   0.268E-01    0.107E+00
RMM:   5    -0.669268138984E+03   -0.10668E-02   -0.51238E-03 15437   0.142E-01    0.106E+00
RMM:   6    -0.669266903224E+03    0.12358E-02   -0.25245E-03 15125   0.103E-01    0.101E+00
RMM:   7    -0.669267019689E+03   -0.11647E-03   -0.10345E-03 12524   0.706E-02    0.999E-01
RMM:   8    -0.669267181463E+03   -0.16177E-03   -0.41599E-04  8775   0.544E-02    0.997E-01
RMM:   9    -0.669267241273E+03   -0.59810E-04   -0.15745E-04  7406   0.579E-02
     61 T=   364. E= -.67001000E+03 F= -.66926724E+03 E0= -.66926724E+03  EK= 0.41388E+01 SP= -.49E+01 SK= 0.19E-01 mag=     -0.007
       N       E                     dE             d eps       ncg     rms          rms(c)
DAV:   1    -0.669313733272E+03   -0.46552E-01   -0.43884E-02 17856   0.213E+00    0.133E+00
RMM:   2    -0.669299654067E+03    0.14079E-01   -0.11434E-01 15282   0.661E-01    0.119E+00
RMM:   3    -0.669299011290E+03    0.64278E-03   -0.20173E-02 15201   0.243E-01    0.119E+00
RMM:   4    -0.669299677173E+03   -0.66588E-03   -0.51626E-03 13124   0.114E-01    0.121E+00
RMM:   5    -0.669299514687E+03    0.16249E-03   -0.88753E-04  9561   0.145E-01    0.121E+00
RMM:   6    -0.669299098936E+03    0.41575E-03   -0.10700E-03 11238   0.769E-02    0.121E+00
RMM:   7    -0.669299279329E+03   -0.18039E-03   -0.48967E-04  9193   0.567E-02    0.121E+00
RMM:   8    -0.669300276556E+03   -0.99723E-03   -0.14572E-03 12333   0.786E-02    0.125E+00
RMM:   9    -0.669300268960E+03    0.75962E-05   -0.29124E-04  7972   0.526E-02
     62 T=   359. E= -.67001871E+03 F= -.66930027E+03 E0= -.66930027E+03  EK= 0.40838E+01 SP= -.48E+01 SK= 0.33E-01 mag=     -0.006
       N       E                     dE             d eps       ncg     rms          rms(c)
DAV:   1    -0.669313953509E+03   -0.13677E-01   -0.41243E-02 19776   0.219E+00    0.169E+00
RMM:   2    -0.669316980075E+03   -0.30266E-02   -0.27961E-02 15314   0.360E-01    0.169E+00
RMM:   3    -0.669317147815E+03   -0.16774E-03   -0.51723E-03 15220   0.117E-01    0.170E+00
RMM:   4    -0.669317875681E+03   -0.72787E-03   -0.15373E-03 13024   0.114E-01    0.171E+00
RMM:   5    -0.669319959560E+03   -0.20839E-02   -0.21298E-03 14373   0.948E-02    0.175E+00
RMM:   6    -0.669317626053E+03    0.23335E-02   -0.12989E-03 12352   0.962E-02    0.171E+00
RMM:   7    -0.669312721696E+03    0.49044E-02   -0.35326E-03 14202   0.136E-01    0.161E+00
RMM:   8    -0.669309355046E+03    0.33666E-02   -0.17811E-03 14132   0.851E-02    0.153E+00
RMM:   9    -0.669304709064E+03    0.46460E-02   -0.26488E-03 15061   0.113E-01    0.139E+00
RMM:  10    -0.669296540315E+03    0.81687E-02   -0.69740E-03 18208   0.172E-01    0.114E+00
RMM:  11    -0.669290142188E+03    0.63981E-02   -0.10942E-02 18663   0.214E-01    0.887E-01
RMM:  12    -0.669285804146E+03    0.43380E-02   -0.10686E-02 18552   0.182E-01    0.658E-01
RMM:  13    -0.669281834973E+03    0.39692E-02   -0.11749E-02 18680   0.172E-01    0.371E-01
RMM:  14    -0.669280872536E+03    0.96244E-03   -0.60660E-03 16761   0.114E-01    0.217E-01
RMM:  15    -0.669280635339E+03    0.23720E-03   -0.13726E-03 13423   0.703E-02    0.150E-01
RMM:  16    -0.669280542937E+03    0.92403E-04   -0.82240E-04 11273   0.700E-02
     63 T=   350. E= -.67000069E+03 F= -.66928054E+03 E0= -.66928054E+03  EK= 0.39843E+01 SP= -.48E+01 SK= 0.48E-01 mag=     -0.002
       N       E                     dE             d eps       ncg     rms          rms(c)
DAV:   1    -0.669348419547E+03   -0.67784E-01   -0.61174E-02 20688   0.249E+00    0.268E+00
RMM:   2    -0.669239815664E+03    0.10860E+00   -0.29800E-01 14360   0.157E+00    0.588E-01
RMM:   3    -0.669253624886E+03   -0.13809E-01   -0.14452E-01 16116   0.484E-01    0.315E-01
RMM:   4    -0.669256493223E+03   -0.28683E-02   -0.39166E-02 17440   0.254E-01    0.210E-01
RMM:   5    -0.669256897325E+03   -0.40410E-03   -0.49867E-03 15935   0.129E-01    0.189E-01
RMM:   6    -0.669257000789E+03   -0.10346E-03   -0.14027E-03 13661   0.791E-02    0.173E-01
RMM:   7    -0.669257038541E+03   -0.37751E-04   -0.62173E-04 10875   0.489E-02
     64 T=   338. E= -.67000008E+03 F= -.66925704E+03 E0= -.66925704E+03  EK= 0.38499E+01 SP= -.47E+01 SK= 0.63E-01 mag=     -0.000
       N       E                     dE             d eps       ncg     rms          rms(c)
DAV:   1    -0.669229072614E+03    0.27928E-01   -0.47419E-02 22224   0.215E+00    0.106E+00
RMM:   2    -0.669215496014E+03    0.13577E-01   -0.64183E-02 14523   0.744E-01    0.425E-01
RMM:   3    -0.669217436380E+03   -0.19404E-02   -0.20549E-02 14530   0.206E-01    0.367E-01
RMM:   4    -0.669217640090E+03   -0.20371E-03   -0.46615E-03 13209   0.144E-01    0.341E-01
RMM:   5    -0.669217158062E+03    0.48203E-03   -0.20718E-03 12143   0.131E-01    0.294E-01
RMM:   6    -0.669216664001E+03    0.49406E-03   -0.21326E-03 13165   0.848E-02    0.196E-01
RMM:   7    -0.669216596708E+03    0.67293E-04   -0.48887E-04  9414   0.565E-02
     65 T=   324. E= -.66999931E+03 F= -.66921660E+03 E0= -.66921660E+03  EK= 0.36908E+01 SP= -.45E+01 SK= 0.74E-01 mag=      0.000
       N       E                     dE             d eps       ncg     rms          rms(c)
DAV:   1    -0.669164801366E+03    0.51863E-01   -0.40429E-02 15525   0.210E+00    0.300E-01
RMM:   2    -0.669165849307E+03   -0.10479E-02   -0.20363E-02 15407   0.357E-01    0.210E-01
RMM:   3    -0.669166306259E+03   -0.45695E-03   -0.52322E-03 18007   0.110E-01    0.184E-01
RMM:   4    -0.669166372878E+03   -0.66619E-04   -0.18074E-03 15923   0.706E-02    0.173E-01
RMM:   5    -0.669166411133E+03   -0.38255E-04   -0.10649E-03 13957   0.617E-02    0.158E-01
RMM:   6    -0.669166412518E+03   -0.13851E-05   -0.72288E-04 13048   0.605E-02
     66 T=   309. E= -.66999821E+03 F= -.66916641E+03 E0= -.66916641E+03  EK= 0.35201E+01 SP= -.44E+01 SK= 0.81E-01 mag=      0.000
       N       E                     dE             d eps       ncg     rms          rms(c)
DAV:   1    -0.669114703366E+03    0.51708E-01   -0.36860E-02 19326   0.194E+00    0.302E-01
RMM:   2    -0.669115281354E+03   -0.57799E-03   -0.12888E-02 15611   0.250E-01    0.282E-01
RMM:   3    -0.669115303829E+03   -0.22474E-04   -0.31665E-03 16726   0.975E-02    0.248E-01
RMM:   4    -0.669115317494E+03   -0.13665E-04   -0.93438E-04 12738   0.685E-02
     67 T=   295. E= -.66999779E+03 F= -.66911532E+03 E0= -.66911532E+03  EK= 0.33508E+01 SP= -.43E+01 SK= 0.82E-01 mag=      0.001
       N       E                     dE             d eps       ncg     rms          rms(c)
DAV:   1    -0.669068932348E+03    0.46371E-01   -0.31465E-02 20997   0.188E+00    0.396E-01
RMM:   2    -0.669069501385E+03   -0.56904E-03   -0.12662E-02 15333   0.238E-01    0.330E-01
RMM:   3    -0.669069598318E+03   -0.96934E-04   -0.31935E-03 14837   0.870E-02    0.294E-01
RMM:   4    -0.669069598898E+03   -0.57998E-06   -0.78414E-04 11945   0.920E-02
     68 T=   281. E= -.66999728E+03 F= -.66906960E+03 E0= -.66906960E+03  EK= 0.31940E+01 SP= -.42E+01 SK= 0.77E-01 mag=      0.000
       N       E                     dE             d eps       ncg     rms          rms(c)
DAV:   1    -0.669032687249E+03    0.36911E-01   -0.38359E-02 21207   0.183E+00    0.316E-01
RMM:   2    -0.669033309937E+03   -0.62269E-03   -0.13807E-02 15318   0.256E-01    0.138E-01
RMM:   3    -0.669033479613E+03   -0.16968E-03   -0.25312E-03 16010   0.916E-02    0.104E-01
RMM:   4    -0.669033613503E+03   -0.13389E-03   -0.90471E-04 13093   0.665E-02    0.103E-01
RMM:   5    -0.669033623404E+03   -0.99011E-05   -0.39690E-04 10314   0.558E-02
     69 T=   269. E= -.66999561E+03 F= -.66903362E+03 E0= -.66903362E+03  EK= 0.30580E+01 SP= -.41E+01 SK= 0.68E-01 mag=     -0.001
       N       E                     dE             d eps       ncg     rms          rms(c)
DAV:   1    -0.669011859367E+03    0.21754E-01   -0.38287E-02 21618   0.183E+00    0.210E-01
RMM:   2    -0.669013578110E+03   -0.17187E-02   -0.18640E-02 15304   0.277E-01    0.146E-01
RMM:   3    -0.669013697735E+03   -0.11962E-03   -0.26732E-03 15152   0.969E-02    0.129E-01
RMM:   4    -0.669013731929E+03   -0.34193E-04   -0.93871E-04 12595   0.727E-02
     70 T=   259. E= -.66999493E+03 F= -.66901373E+03 E0= -.66901373E+03  EK= 0.29488E+01 SP= -.40E+01 SK= 0.56E-01 mag=     -0.001
       N       E                     dE             d eps       ncg     rms          rms(c)
DAV:   1    -0.669011388487E+03    0.23092E-02   -0.25842E-02 17427   0.178E+00    0.256E-01
RMM:   2    -0.669012442406E+03   -0.10539E-02   -0.11632E-02 15361   0.251E-01    0.208E-01
RMM:   3    -0.669012820433E+03   -0.37803E-03   -0.22236E-03 15785   0.821E-02    0.205E-01
RMM:   4    -0.669012879192E+03   -0.58759E-04   -0.70956E-04 11964   0.616E-02
     71 T=   252. E= -.66999538E+03 F= -.66901288E+03 E0= -.66901288E+03  EK= 0.28700E+01 SP= -.39E+01 SK= 0.42E-01 mag=     -0.001
       N       E                     dE             d eps       ncg     rms          rms(c)
DAV:   1    -0.669030892097E+03   -0.18072E-01   -0.26184E-02 19266   0.176E+00    0.302E-01
RMM:   2    -0.669032288689E+03   -0.13966E-02   -0.14040E-02 15445   0.255E-01    0.345E-01
RMM:   3    -0.669032043130E+03    0.24556E-03   -0.18983E-03 15109   0.811E-02    0.336E-01
RMM:   4    -0.669031698674E+03    0.34446E-03   -0.76538E-04 12636   0.761E-02    0.317E-01
RMM:   5    -0.669031022637E+03    0.67604E-03   -0.71321E-04 12947   0.633E-02    0.277E-01
RMM:   6    -0.669030610132E+03    0.41250E-03   -0.92027E-04 13187   0.725E-02    0.236E-01
RMM:   7    -0.669030405917E+03    0.20422E-03   -0.61234E-04 12115   0.612E-02    0.208E-01
RMM:   8    -0.669030125615E+03    0.28030E-03   -0.92241E-04 12684   0.742E-02    0.164E-01
RMM:   9    -0.669029911634E+03    0.21398E-03   -0.14230E-03 14644   0.782E-02    0.104E-01
RMM:  10    -0.669029868857E+03    0.42777E-04   -0.10164E-03 13296   0.689E-02    0.595E-02
RMM:  11    -0.669029890650E+03   -0.21793E-04   -0.55706E-04 10673   0.673E-02
     72 T=   248. E= -.66999483E+03 F= -.66902989E+03 E0= -.66902989E+03  EK= 0.28229E+01 SP= -.38E+01 SK= 0.29E-01 mag=     -0.000
       N       E                     dE             d eps       ncg     rms          rms(c)
DAV:   1    -0.669070207909E+03   -0.40339E-01   -0.26237E-02 19584   0.181E+00    0.437E-01
RMM:   2    -0.669066213769E+03    0.39941E-02   -0.16256E-02 15265   0.307E-01    0.195E-01
RMM:   3    -0.669066348293E+03   -0.13452E-03   -0.40099E-03 15434   0.963E-02    0.138E-01
RMM:   4    -0.669066427689E+03   -0.79397E-04   -0.11711E-03 13256   0.783E-02    0.129E-01
RMM:   5    -0.669066422244E+03    0.54451E-05   -0.51089E-04 10120   0.578E-02
     73 T=   247. E= -.66999521E+03 F= -.66906642E+03 E0= -.66906642E+03  EK= 0.28072E+01 SP= -.38E+01 SK= 0.18E-01 mag=     -0.000
       N       E                     dE             d eps       ncg     rms          rms(c)
DAV:   1    -0.669118329412E+03   -0.51902E-01   -0.31790E-02 21888   0.177E+00    0.227E-01
RMM:   2    -0.669118977557E+03   -0.64814E-03   -0.10316E-02 15322   0.236E-01    0.175E-01
RMM:   3    -0.669119144993E+03   -0.16744E-03   -0.19859E-03 14365   0.780E-02    0.162E-01
RMM:   4    -0.669119102938E+03    0.42055E-04   -0.66058E-04 12140   0.944E-02
     74 T=   248. E= -.66999493E+03 F= -.66911910E+03 E0= -.66911910E+03  EK= 0.28206E+01 SP= -.37E+01 SK= 0.97E-02 mag=     -0.000
       N       E                     dE             d eps       ncg     rms          rms(c)
DAV:   1    -0.669183408147E+03   -0.64263E-01   -0.26705E-02 20325   0.178E+00    0.110E-01
RMM:   2    -0.669184545277E+03   -0.11371E-02   -0.11585E-02 15400   0.211E-01    0.711E-02
RMM:   3    -0.669184745640E+03   -0.20036E-03   -0.22430E-03 12870   0.789E-02    0.687E-02
RMM:   4    -0.669184761040E+03   -0.15401E-04   -0.48674E-04 10654   0.104E-01
     75 T=   251. E= -.66999434E+03 F= -.66918476E+03 E0= -.66918476E+03  EK= 0.28590E+01 SP= -.37E+01 SK= 0.40E-02 mag=      0.000
       N       E                     dE             d eps       ncg     rms          rms(c)
DAV:   1    -0.669258816453E+03   -0.74071E-01   -0.27107E-02 20307   0.180E+00    0.110E-01
RMM:   2    -0.669259654306E+03   -0.83785E-03   -0.92995E-03 15417   0.208E-01    0.698E-02
RMM:   3    -0.669259777235E+03   -0.12293E-03   -0.16897E-03 14734   0.706E-02    0.570E-02
RMM:   4    -0.669259812122E+03   -0.34887E-04   -0.62647E-04 11772   0.703E-02
     76 T=   257. E= -.66999406E+03 F= -.66925981E+03 E0= -.66925981E+03  EK= 0.29177E+01 SP= -.37E+01 SK= 0.10E-02 mag=      0.000
       N       E                     dE             d eps       ncg     rms          rms(c)
DAV:   1    -0.669338665219E+03   -0.78888E-01   -0.25149E-02 19539   0.182E+00    0.144E-01
RMM:   2    -0.669339516776E+03   -0.85156E-03   -0.98238E-03 15485   0.215E-01    0.128E-01
RMM:   3    -0.669339593010E+03   -0.76234E-04   -0.15879E-03 14658   0.743E-02    0.117E-01
RMM:   4    -0.669339579465E+03    0.13545E-04   -0.88195E-04 13168   0.825E-02
     77 T=   263. E= -.66999384E+03 F= -.66933958E+03 E0= -.66933958E+03  EK= 0.29912E+01 SP= -.36E+01 SK= 0.19E-04 mag=      0.000
       N       E                     dE             d eps       ncg     rms          rms(c)
DAV:   1    -0.669418315280E+03   -0.78722E-01   -0.28562E-02 21204   0.184E+00    0.156E-01
RMM:   2    -0.669419089407E+03   -0.77413E-03   -0.10543E-02 15374   0.218E-01    0.121E-01
RMM:   3    -0.669419124332E+03   -0.34925E-04   -0.16426E-03 13743   0.744E-02    0.109E-01
RMM:   4    -0.669419090900E+03    0.33432E-04   -0.50148E-04 10942   0.733E-02
     78 T=   270. E= -.66999348E+03 F= -.66941909E+03 E0= -.66941909E+03  EK= 0.30737E+01 SP= -.36E+01 SK= 0.34E-03 mag=     -0.000
       N       E                     dE             d eps       ncg     rms          rms(c)
DAV:   1    -0.669492387968E+03   -0.73264E-01   -0.29753E-02 20661   0.187E+00    0.645E-02
RMM:   2    -0.669493517584E+03   -0.11296E-02   -0.10777E-02 15262   0.219E-01    0.401E-02
RMM:   3    -0.669493672386E+03   -0.15480E-03   -0.16923E-03 12570   0.768E-02    0.302E-02
RMM:   4    -0.669493706624E+03   -0.34238E-04   -0.48236E-04 10587   0.981E-02
     79 T=   278. E= -.66999321E+03 F= -.66949371E+03 E0= -.66949371E+03  EK= 0.31588E+01 SP= -.37E+01 SK= 0.13E-02 mag=      0.000
       N       E                     dE             d eps       ncg     rms          rms(c)
DAV:   1    -0.669558497203E+03   -0.64825E-01   -0.29296E-02 21045   0.190E+00    0.157E-01
RMM:   2    -0.669559367653E+03   -0.87045E-03   -0.10736E-02 15336   0.213E-01    0.125E-01
RMM:   3    -0.669559429094E+03   -0.61441E-04   -0.19093E-03 14107   0.781E-02    0.882E-02
RMM:   4    -0.669559429644E+03   -0.55070E-06   -0.71771E-04 12218   0.848E-02
     80 T=   285. E= -.66999321E+03 F= -.66955943E+03 E0= -.66955943E+03  EK= 0.32410E+01 SP= -.37E+01 SK= 0.24E-02 mag=      0.000
       N       E                     dE             d eps       ncg     rms          rms(c)
DAV:   1    -0.669612017500E+03   -0.52588E-01   -0.29302E-02 19494   0.191E+00    0.840E-02
RMM:   2    -0.669612911274E+03   -0.89377E-03   -0.88496E-03 15583   0.202E-01    0.914E-02
RMM:   3    -0.669613058052E+03   -0.14678E-03   -0.14851E-03 13214   0.691E-02    0.897E-02
RMM:   4    -0.669613115869E+03   -0.57817E-04   -0.57732E-04 11120   0.792E-02
     81 T=   291. E= -.66999330E+03 F= -.66961312E+03 E0= -.66961312E+03  EK= 0.33154E+01 SP= -.37E+01 SK= 0.32E-02 mag=      0.000
       N       E                     dE             d eps       ncg     rms          rms(c)
DAV:   1    -0.669651328104E+03   -0.38270E-01   -0.29380E-02 20421   0.193E+00    0.120E-01
RMM:   2    -0.669652224414E+03   -0.89631E-03   -0.10175E-02 15321   0.212E-01    0.108E-01
RMM:   3    -0.669652294114E+03   -0.69699E-04   -0.17668E-03 13501   0.740E-02    0.933E-02
RMM:   4    -0.669652279716E+03    0.14398E-04   -0.53827E-04 10911   0.805E-02
     82 T=   297. E= -.66999324E+03 F= -.66965228E+03 E0= -.66965228E+03  EK= 0.33782E+01 SP= -.37E+01 SK= 0.36E-02 mag=     -0.000
       N       E                     dE             d eps       ncg     rms          rms(c)
DAV:   1    -0.669674861170E+03   -0.22567E-01   -0.29886E-02 19716   0.194E+00    0.484E-02
RMM:   2    -0.669675833879E+03   -0.97271E-03   -0.10075E-02 15336   0.223E-01    0.583E-02
RMM:   3    -0.669675929734E+03   -0.95855E-04   -0.15594E-03 14086   0.739E-02    0.349E-02
RMM:   4    -0.669675980306E+03   -0.50572E-04   -0.65269E-04 11318   0.693E-02
     83 T=   301. E= -.66999291E+03 F= -.66967598E+03 E0= -.66967598E+03  EK= 0.34270E+01 SP= -.37E+01 SK= 0.36E-02 mag=     -0.000
       N       E                     dE             d eps       ncg     rms          rms(c)
DAV:   1    -0.669683346482E+03   -0.74167E-02   -0.29964E-02 19605   0.194E+00    0.104E-01
RMM:   2    -0.669684418892E+03   -0.10724E-02   -0.10682E-02 15556   0.223E-01    0.695E-02
RMM:   3    -0.669684575362E+03   -0.15647E-03   -0.21580E-03 14167   0.800E-02    0.368E-02
RMM:   4    -0.669684635168E+03   -0.59807E-04   -0.70579E-04 11881   0.847E-02
     84 T=   304. E= -.66999241E+03 F= -.66968464E+03 E0= -.66968464E+03  EK= 0.34608E+01 SP= -.38E+01 SK= 0.33E-02 mag=     -0.000
       N       E                     dE             d eps       ncg     rms          rms(c)
DAV:   1    -0.669678777808E+03    0.57976E-02   -0.29116E-02 19284   0.193E+00    0.546E-02
RMM:   2    -0.669679780436E+03   -0.10026E-02   -0.99939E-03 15523   0.222E-01    0.468E-02
RMM:   3    -0.669679942041E+03   -0.16161E-03   -0.17785E-03 13894   0.726E-02    0.426E-02
RMM:   4    -0.669679997280E+03   -0.55238E-04   -0.70552E-04 11164   0.766E-02
     85 T=   306. E= -.66999217E+03 F= -.66968000E+03 E0= -.66968000E+03  EK= 0.34798E+01 SP= -.38E+01 SK= 0.29E-02 mag=      0.000
       N       E                     dE             d eps       ncg     rms          rms(c)
DAV:   1    -0.669663260828E+03    0.16681E-01   -0.29797E-02 19764   0.192E+00    0.535E-02
RMM:   2    -0.669664171147E+03   -0.91032E-03   -0.95604E-03 15437   0.218E-01    0.326E-02
RMM:   3    -0.669664318053E+03   -0.14691E-03   -0.17511E-03 13855   0.717E-02    0.244E-02
RMM:   4    -0.669664371286E+03   -0.53233E-04   -0.64949E-04 11763   0.795E-02
     86 T=   306. E= -.66999179E+03 F= -.66966437E+03 E0= -.66966437E+03  EK= 0.34863E+01 SP= -.38E+01 SK= 0.24E-02 mag=      0.000
       N       E                     dE             d eps       ncg     rms          rms(c)
DAV:   1    -0.669639670037E+03    0.24648E-01   -0.29610E-02 19620   0.190E+00    0.591E-02
RMM:   2    -0.669640745195E+03   -0.10752E-02   -0.10945E-02 15700   0.228E-01    0.282E-02
RMM:   3    -0.669640921843E+03   -0.17665E-03   -0.20046E-03 14411   0.761E-02    0.216E-02
RMM:   4    -0.669640992003E+03   -0.70161E-04   -0.77633E-04 11984   0.763E-02
     87 T=   306. E= -.66999106E+03 F= -.66964099E+03 E0= -.66964099E+03  EK= 0.34833E+01 SP= -.38E+01 SK= 0.20E-02 mag=     -0.000
       N       E                     dE             d eps       ncg     rms          rms(c)
DAV:   1    -0.669612367456E+03    0.28554E-01   -0.28461E-02 19236   0.187E+00    0.413E-02
RMM:   2    -0.669613355269E+03   -0.98781E-03   -0.98989E-03 15615   0.224E-01    0.295E-02
RMM:   3    -0.669613530876E+03   -0.17561E-03   -0.19478E-03 14181   0.759E-02    0.212E-02
RMM:   4    -0.669613599868E+03   -0.68991E-04   -0.76472E-04 11698   0.786E-02
     88 T=   305. E= -.66999034E+03 F= -.66961360E+03 E0= -.66961360E+03  EK= 0.34744E+01 SP= -.39E+01 SK= 0.16E-02 mag=     -0.000
       N       E                     dE             d eps       ncg     rms          rms(c)
DAV:   1    -0.669584942160E+03    0.28589E-01   -0.28417E-02 19845   0.185E+00    0.371E-02
RMM:   2    -0.669585909159E+03   -0.96700E-03   -0.96857E-03 15594   0.218E-01    0.246E-02
RMM:   3    -0.669586090509E+03   -0.18135E-03   -0.19594E-03 14329   0.748E-02    0.238E-02
RMM:   4    -0.669586156580E+03   -0.66071E-04   -0.74622E-04 11971   0.766E-02
     89 T=   304. E= -.66998979E+03 F= -.66958616E+03 E0= -.66958616E+03  EK= 0.34636E+01 SP= -.39E+01 SK= 0.13E-02 mag=      0.000
       N       E                     dE             d eps       ncg     rms          rms(c)
DAV:   1    -0.669561137733E+03    0.24953E-01   -0.28532E-02 19683   0.183E+00    0.464E-02
RMM:   2    -0.669562051684E+03   -0.91395E-03   -0.93763E-03 15652   0.218E-01    0.323E-02
RMM:   3    -0.669562217843E+03   -0.16616E-03   -0.18773E-03 14462   0.738E-02    0.265E-02
RMM:   4    -0.669562281259E+03   -0.63416E-04   -0.72301E-04 12058   0.755E-02
     90 T=   304. E= -.66998922E+03 F= -.66956228E+03 E0= -.66956228E+03  EK= 0.34548E+01 SP= -.39E+01 SK= 0.11E-02 mag=     -0.000
       N       E                     dE             d eps       ncg     rms          rms(c)
DAV:   1    -0.669543651118E+03    0.18567E-01   -0.27642E-02 19524   0.180E+00    0.418E-02
RMM:   2    -0.669544626995E+03   -0.97588E-03   -0.98802E-03 15651   0.229E-01    0.238E-02
RMM:   3    -0.669544827795E+03   -0.20080E-03   -0.21529E-03 14685   0.768E-02    0.170E-02
RMM:   4    -0.669544906238E+03   -0.78442E-04   -0.83364E-04 12002   0.750E-02
     91 T=   303. E= -.66998865E+03 F= -.66954491E+03 E0= -.66954491E+03  EK= 0.34513E+01 SP= -.39E+01 SK= 0.93E-03 mag=     -0.000
       N       E                     dE             d eps       ncg     rms          rms(c)
DAV:   1    -0.669535310145E+03    0.95177E-02   -0.28229E-02 19701   0.179E+00    0.494E-02
RMM:   2    -0.669536262840E+03   -0.95270E-03   -0.94946E-03 15619   0.221E-01    0.395E-02
RMM:   3    -0.669536433532E+03   -0.17069E-03   -0.20070E-03 14661   0.756E-02    0.325E-02
RMM:   4    -0.669536488319E+03   -0.54787E-04   -0.73773E-04 12307   0.753E-02
     92 T=   304. E= -.66998814E+03 F= -.66953649E+03 E0= -.66953649E+03  EK= 0.34556E+01 SP= -.39E+01 SK= 0.78E-03 mag=      0.000
       N       E                     dE             d eps       ncg     rms          rms(c)
DAV:   1    -0.669537148368E+03   -0.71484E-03   -0.27388E-02 19299   0.179E+00    0.496E-02
RMM:   2    -0.669538122415E+03   -0.97405E-03   -0.10089E-02 15728   0.227E-01    0.279E-02
RMM:   3    -0.669538324279E+03   -0.20186E-03   -0.21735E-03 15019   0.778E-02    0.224E-02
RMM:   4    -0.669538398887E+03   -0.74608E-04   -0.79764E-04 12317   0.747E-02
     93 T=   305. E= -.66998770E+03 F= -.66953840E+03 E0= -.66953840E+03  EK= 0.34690E+01 SP= -.39E+01 SK= 0.61E-03 mag=      0.000
       N       E                     dE             d eps       ncg     rms          rms(c)
DAV:   1    -0.669549615361E+03   -0.11291E-01   -0.28439E-02 19635   0.178E+00    0.455E-02
RMM:   2    -0.669550666763E+03   -0.10514E-02   -0.10694E-02 15746   0.230E-01    0.312E-02
RMM:   3    -0.669550843574E+03   -0.17681E-03   -0.21165E-03 15231   0.792E-02    0.232E-02
RMM:   4    -0.669550908357E+03   -0.64784E-04   -0.80088E-04 12607   0.718E-02
     94 T=   307. E= -.66998726E+03 F= -.66955091E+03 E0= -.66955091E+03  EK= 0.34914E+01 SP= -.39E+01 SK= 0.41E-03 mag=      0.000
       N       E                     dE             d eps       ncg     rms          rms(c)
DAV:   1    -0.669572251917E+03   -0.21408E-01   -0.28616E-02 19479   0.180E+00    0.448E-02
RMM:   2    -0.669573263413E+03   -0.10115E-02   -0.10371E-02 15798   0.220E-01    0.317E-02
RMM:   3    -0.669573448462E+03   -0.18505E-03   -0.21594E-03 14984   0.782E-02    0.265E-02
RMM:   4    -0.669573508909E+03   -0.60447E-04   -0.77699E-04 12689   0.725E-02
     95 T=   310. E= -.66998686E+03 F= -.66957351E+03 E0= -.66957351E+03  EK= 0.35218E+01 SP= -.39E+01 SK= 0.21E-03 mag=      0.000
       N       E                     dE             d eps       ncg     rms          rms(c)
DAV:   1    -0.669603489124E+03   -0.30041E-01   -0.28520E-02 20418   0.181E+00    0.386E-02
RMM:   2    -0.669604515308E+03   -0.10262E-02   -0.10364E-02 15650   0.233E-01    0.210E-02
RMM:   3    -0.669604703849E+03   -0.18854E-03   -0.21040E-03 15116   0.786E-02    0.143E-02
RMM:   4    -0.669604782696E+03   -0.78847E-04   -0.82901E-04 12109   0.711E-02
     96 T=   313. E= -.66998660E+03 F= -.66960478E+03 E0= -.66960478E+03  EK= 0.35578E+01 SP= -.39E+01 SK= 0.42E-04 mag=      0.000
       N       E                     dE             d eps       ncg     rms          rms(c)
DAV:   1    -0.669641105449E+03   -0.36402E-01   -0.28946E-02 19842   0.182E+00    0.411E-02
RMM:   2    -0.669642127388E+03   -0.10219E-02   -0.10290E-02 15784   0.232E-01    0.266E-02
RMM:   3    -0.669642338520E+03   -0.21113E-03   -0.22865E-03 14942   0.792E-02    0.240E-02
RMM:   4    -0.669642409622E+03   -0.71102E-04   -0.80208E-04 12294   0.759E-02
     97 T=   316. E= -.66998630E+03 F= -.66964241E+03 E0= -.66964241E+03  EK= 0.35963E+01 SP= -.39E+01 SK= 0.14E-04 mag=      0.000
       N       E                     dE             d eps       ncg     rms          rms(c)
DAV:   1    -0.669682454130E+03   -0.40116E-01   -0.29649E-02 20133   0.185E+00    0.356E-02
RMM:   2    -0.669683451359E+03   -0.99723E-03   -0.10031E-02 15748   0.221E-01    0.221E-02
RMM:   3    -0.669683655720E+03   -0.20436E-03   -0.21923E-03 14547   0.782E-02    0.177E-02
RMM:   4    -0.669683740373E+03   -0.84654E-04   -0.88130E-04 12081   0.772E-02
     98 T=   319. E= -.66998596E+03 F= -.66968374E+03 E0= -.66968374E+03  EK= 0.36336E+01 SP= -.39E+01 SK= 0.27E-03 mag=      0.000
       N       E                     dE             d eps       ncg     rms          rms(c)
DAV:   1    -0.669724410216E+03   -0.40754E-01   -0.29433E-02 19668   0.187E+00    0.397E-02
RMM:   2    -0.669725428441E+03   -0.10182E-02   -0.10416E-02 15653   0.230E-01    0.208E-02
RMM:   3    -0.669725640960E+03   -0.21252E-03   -0.22561E-03 14869   0.789E-02    0.216E-02
RMM:   4    -0.669725719255E+03   -0.78295E-04   -0.84956E-04 12066   0.746E-02
     99 T=   322. E= -.66998564E+03 F= -.66972572E+03 E0= -.66972572E+03  EK= 0.36654E+01 SP= -.39E+01 SK= 0.97E-03 mag=      0.000
       N       E                     dE             d eps       ncg     rms          rms(c)
DAV:   1    -0.669764071666E+03   -0.38431E-01   -0.30526E-02 19653   0.189E+00    0.471E-02
RMM:   2    -0.669765103323E+03   -0.10317E-02   -0.10535E-02 15690   0.236E-01    0.258E-02
RMM:   3    -0.669765314323E+03   -0.21100E-03   -0.22831E-03 15132   0.805E-02    0.194E-02
RMM:   4    -0.669765398284E+03   -0.83961E-04   -0.88698E-04 12356   0.754E-02
    100 T=   324. E= -.66998530E+03 F= -.66976540E+03 E0= -.66976540E+03  EK= 0.36879E+01 SP= -.39E+01 SK= 0.23E-02 mag=      0.000
