       N       E                     dE             d eps       ncg     rms          rms(c)
DAV:   1     0.444705327002E+04    0.44471E+04   -0.22379E+05  1008   0.951E+02
DAV:   2    -0.346922365128E+03   -0.47940E+04   -0.47628E+04  1504   0.221E+02
DAV:   3    -0.105600265525E+04   -0.70908E+03   -0.70857E+03   752   0.966E+01
DAV:   4    -0.108142900736E+04   -0.25426E+02   -0.25378E+02   992   0.201E+01
DAV:   5    -0.108173343979E+04   -0.30443E+00   -0.30420E+00   992   0.230E+00    0.818E+01
RMM:   6    -0.958605967163E+03    0.12313E+03   -0.46330E+02   752   0.308E+01    0.363E+01
RMM:   7    -0.959030995233E+03   -0.42503E+00   -0.72169E+01   752   0.106E+01    0.166E+01
RMM:   8    -0.957661598957E+03    0.13694E+01   -0.66434E+00   752   0.426E+00    0.468E+00
RMM:   9    -0.957533872365E+03    0.12773E+00   -0.25440E+00   754   0.244E+00    0.159E+00
RMM:  10    -0.957556742259E+03   -0.22870E-01   -0.15829E+00   755   0.160E+00    0.158E+00
RMM:  11    -0.957503744899E+03    0.52997E-01   -0.30059E-01   753   0.779E-01    0.395E-01
RMM:  12    -0.957538291240E+03   -0.34546E-01   -0.25662E-01   752   0.737E-01    0.768E-01
RMM:  13    -0.957546608063E+03   -0.83168E-02   -0.14055E-01   752   0.520E-01    0.231E-01
RMM:  14    -0.957572658807E+03   -0.26051E-01   -0.34834E-02   836   0.198E-01    0.219E-01
RMM:  15    -0.957584306367E+03   -0.11648E-01   -0.11217E-02   752   0.148E-01    0.754E-02
RMM:  16    -0.957593304109E+03   -0.89977E-02   -0.18693E-03   717   0.546E-02    0.308E-02
RMM:  17    -0.957600877317E+03   -0.75732E-02   -0.14304E-03   689   0.446E-02    0.609E-02
RMM:  18    -0.957605226834E+03   -0.43495E-02   -0.23498E-03   759   0.661E-02    0.641E-02
RMM:  19    -0.957606657169E+03   -0.14303E-02   -0.26082E-04   525   0.208E-02    0.456E-02
RMM:  20    -0.957607492398E+03   -0.83523E-03   -0.36797E-04   562   0.260E-02    0.510E-03
RMM:  21    -0.957607800831E+03   -0.30843E-03   -0.13758E-04   454   0.156E-02    0.169E-02
RMM:  22    -0.957607958033E+03   -0.15720E-03   -0.27431E-05   389   0.658E-03    0.143E-02
RMM:  23    -0.957608094574E+03   -0.13654E-03   -0.59240E-05   452   0.112E-02    0.523E-03
RMM:  24    -0.957608130141E+03   -0.35567E-04   -0.39396E-06   245   0.363E-03
      1 T=   300. E= -.95198539E+03 F= -.95760813E+03 E0= -.95760813E+03  EK= 0.56227E+01 SP= 0.00E+00 SK= 0.00E+00
       N       E                     dE             d eps       ncg     rms          rms(c)
DAV:   1    -0.957274603550E+03    0.33349E+00   -0.31253E+01   992   0.107E+01    0.186E+00
RMM:   2    -0.957306580857E+03   -0.31977E-01   -0.67725E-01   752   0.147E+00    0.983E-01
RMM:   3    -0.957300699279E+03    0.58816E-02   -0.90298E-02   753   0.513E-01    0.537E-01
RMM:   4    -0.957302181553E+03   -0.14823E-02   -0.43797E-02   755   0.313E-01    0.168E-01
RMM:   5    -0.957303730698E+03   -0.15491E-02   -0.66658E-03   766   0.126E-01    0.117E-01
RMM:   6    -0.957304768914E+03   -0.10382E-02   -0.61611E-03   753   0.107E-01    0.806E-02
RMM:   7    -0.957305148156E+03   -0.37924E-03   -0.16591E-03   750   0.610E-02    0.297E-02
RMM:   8    -0.957305523717E+03   -0.37556E-03   -0.32703E-04   530   0.239E-02    0.208E-02
RMM:   9    -0.957305792581E+03   -0.26886E-03   -0.28525E-04   517   0.235E-02    0.222E-02
RMM:  10    -0.957305953013E+03   -0.16043E-03   -0.78806E-05   455   0.125E-02    0.471E-03
RMM:  11    -0.957306077256E+03   -0.12424E-03   -0.21454E-05   384   0.611E-03    0.237E-03
RMM:  12    -0.957306165473E+03   -0.88217E-04   -0.19845E-05   443   0.592E-03
      2 T=   285. E= -.95195815E+03 F= -.95730617E+03 E0= -.95730617E+03  EK= 0.53480E+01 SP= -.14E-07 SK= 0.54E-12
       N       E                     dE             d eps       ncg     rms          rms(c)
DAV:   1    -0.956760351271E+03    0.54573E+00   -0.10565E+00   992   0.265E+00    0.452E-01
RMM:   2    -0.956763860792E+03   -0.35095E-02   -0.76004E-02   752   0.517E-01    0.243E-01
RMM:   3    -0.956762094991E+03    0.17658E-02   -0.10575E-02   753   0.166E-01    0.118E-01
RMM:   4    -0.956764654310E+03   -0.25593E-02   -0.75340E-03   753   0.124E-01    0.141E-01
RMM:   5    -0.956764059353E+03    0.59496E-03   -0.23843E-03   753   0.736E-02    0.336E-02
RMM:   6    -0.956764222698E+03   -0.16334E-03   -0.11061E-03   723   0.479E-02    0.443E-02
RMM:   7    -0.956764331086E+03   -0.10839E-03   -0.20305E-04   463   0.220E-02    0.116E-02
RMM:   8    -0.956764386288E+03   -0.55202E-04   -0.49922E-05   453   0.108E-02
      3 T=   258. E= -.95192475E+03 F= -.95676439E+03 E0= -.95676439E+03  EK= 0.48397E+01 SP= -.34E-04 SK= 0.30E-05
       N       E                     dE             d eps       ncg     rms          rms(c)
DAV:   1    -0.956457028888E+03    0.30730E+00   -0.51947E-01   992   0.210E+00    0.172E-01
RMM:   2    -0.956460259512E+03   -0.32306E-02   -0.35573E-02   752   0.363E-01    0.146E-01
RMM:   3    -0.956460698215E+03   -0.43870E-03   -0.59180E-03   752   0.125E-01    0.696E-02
RMM:   4    -0.956460757861E+03   -0.59646E-04   -0.14378E-03   784   0.521E-02    0.436E-02
RMM:   5    -0.956460883393E+03   -0.12553E-03   -0.32714E-04   542   0.265E-02    0.133E-02
RMM:   6    -0.956461046066E+03   -0.16267E-03   -0.10119E-04   454   0.139E-02    0.965E-03
RMM:   7    -0.956461056450E+03   -0.10384E-04   -0.23696E-05   432   0.717E-03
      4 T=   242. E= -.95193199E+03 F= -.95646106E+03 E0= -.95646106E+03  EK= 0.45292E+01 SP= -.17E-03 SK= 0.26E-04
       N       E                     dE             d eps       ncg     rms          rms(c)
DAV:   1    -0.956311560424E+03    0.14949E+00   -0.19397E-01   872   0.196E+00    0.183E-01
RMM:   2    -0.956314787911E+03   -0.32275E-02   -0.34069E-02   752   0.347E-01    0.212E-01
RMM:   3    -0.956314417772E+03    0.37014E-03   -0.24448E-03   751   0.909E-02    0.163E-01
RMM:   4    -0.956313803455E+03    0.61432E-03   -0.48911E-03   752   0.100E-01    0.505E-02
RMM:   5    -0.956314034171E+03   -0.23072E-03   -0.55848E-04   662   0.364E-02    0.185E-02
RMM:   6    -0.956314169064E+03   -0.13489E-03   -0.15546E-04   460   0.187E-02    0.165E-02
RMM:   7    -0.956314180302E+03   -0.11238E-04   -0.57205E-05   453   0.112E-02
      5 T=   233. E= -.95195492E+03 F= -.95631418E+03 E0= -.95631418E+03  EK= 0.43596E+01 SP= -.44E-03 SK= 0.81E-04
       N       E                     dE             d eps       ncg     rms          rms(c)
DAV:   1    -0.955985963336E+03    0.32821E+00   -0.28429E-01   992   0.211E+00    0.275E-01
RMM:   2    -0.955988234451E+03   -0.22711E-02   -0.42540E-02   752   0.399E-01    0.143E-01
RMM:   3    -0.955989350735E+03   -0.11163E-02   -0.36377E-03   751   0.113E-01    0.129E-01
RMM:   4    -0.955989007003E+03    0.34373E-03   -0.12682E-03   755   0.583E-02    0.587E-02
RMM:   5    -0.955989167257E+03   -0.16025E-03   -0.15114E-03   748   0.554E-02    0.334E-02
RMM:   6    -0.955989279615E+03   -0.11236E-03   -0.13547E-04   454   0.181E-02    0.283E-02
RMM:   7    -0.955989333886E+03   -0.54271E-04   -0.49676E-05   453   0.113E-02
      6 T=   215. E= -.95195761E+03 F= -.95598933E+03 E0= -.95598933E+03  EK= 0.40324E+01 SP= -.89E-03 SK= 0.19E-03
       N       E                     dE             d eps       ncg     rms          rms(c)
DAV:   1    -0.955450810215E+03    0.53847E+00   -0.50948E-01   992   0.218E+00    0.341E-01
RMM:   2    -0.955453674004E+03   -0.28638E-02   -0.55161E-02   752   0.451E-01    0.117E-01
RMM:   3    -0.955455178416E+03   -0.15044E-02   -0.51211E-03   752   0.136E-01    0.727E-02
RMM:   4    -0.955455377922E+03   -0.19951E-03   -0.13970E-03   744   0.619E-02    0.431E-02
RMM:   5    -0.955455410709E+03   -0.32787E-04   -0.52519E-04   622   0.354E-02
      7 T=   188. E= -.95193385E+03 F= -.95545541E+03 E0= -.95545541E+03  EK= 0.35227E+01 SP= -.15E-02 SK= 0.40E-03
       N       E                     dE             d eps       ncg     rms          rms(c)
DAV:   1    -0.955048921276E+03    0.40646E+00   -0.66897E-01   992   0.215E+00    0.394E-01
RMM:   2    -0.955050045250E+03   -0.11240E-02   -0.54007E-02   752   0.439E-01    0.140E-01
RMM:   3    -0.955052220134E+03   -0.21749E-02   -0.77100E-03   752   0.153E-01    0.813E-02
RMM:   4    -0.955052387360E+03   -0.16723E-03   -0.12092E-03   767   0.550E-02    0.665E-02
RMM:   5    -0.955052246180E+03    0.14118E-03   -0.33090E-04   527   0.284E-02    0.539E-02
RMM:   6    -0.955052605021E+03   -0.35884E-03   -0.27460E-04   492   0.239E-02    0.200E-02
RMM:   7    -0.955052908629E+03   -0.30361E-03   -0.18199E-04   473   0.181E-02    0.267E-02
RMM:   8    -0.955052978906E+03   -0.70277E-04   -0.52663E-05   453   0.108E-02
      8 T=   167. E= -.95192457E+03 F= -.95505298E+03 E0= -.95505298E+03  EK= 0.31301E+01 SP= -.25E-02 SK= 0.78E-03
       N       E                     dE             d eps       ncg     rms          rms(c)
DAV:   1    -0.954915745575E+03    0.13716E+00   -0.32361E-01   992   0.182E+00    0.252E-01
RMM:   2    -0.954918114108E+03   -0.23685E-02   -0.34777E-02   752   0.348E-01    0.181E-01
RMM:   3    -0.954917990205E+03    0.12390E-03   -0.77569E-03   752   0.139E-01    0.748E-02
RMM:   4    -0.954918367060E+03   -0.37686E-03   -0.18284E-03   753   0.673E-02    0.622E-02
RMM:   5    -0.954918523853E+03   -0.15679E-03   -0.38529E-04   562   0.299E-02    0.252E-02
RMM:   6    -0.954918607100E+03   -0.83247E-04   -0.12162E-04   454   0.166E-02
      9 T=   159. E= -.95194463E+03 F= -.95491861E+03 E0= -.95491861E+03  EK= 0.29764E+01 SP= -.38E-02 SK= 0.14E-02
       N       E                     dE             d eps       ncg     rms          rms(c)
DAV:   1    -0.954790844058E+03    0.12768E+00   -0.43003E-01   992   0.204E+00    0.325E-01
RMM:   2    -0.954792550659E+03   -0.17066E-02   -0.44633E-02   752   0.409E-01    0.113E-01
RMM:   3    -0.954793585399E+03   -0.10347E-02   -0.54091E-03   752   0.125E-01    0.101E-01
RMM:   4    -0.954793588660E+03   -0.32611E-05   -0.10781E-03   732   0.533E-02    0.584E-02
RMM:   5    -0.954793713569E+03   -0.12491E-03   -0.11429E-03   708   0.451E-02    0.437E-02
RMM:   6    -0.954794107220E+03   -0.39365E-03   -0.17016E-04   469   0.196E-02    0.225E-02
RMM:   7    -0.954794290198E+03   -0.18298E-03   -0.94435E-05   456   0.136E-02    0.204E-02
RMM:   8    -0.954794409277E+03   -0.11908E-03   -0.36359E-05   452   0.890E-03    0.133E-02
RMM:   9    -0.954794477792E+03   -0.68515E-04   -0.32856E-05   448   0.824E-03
     10 T=   152. E= -.95194910E+03 F= -.95479448E+03 E0= -.95479448E+03  EK= 0.28486E+01 SP= -.54E-02 SK= 0.21E-02
