<?xml version="1.0" encoding="ISO-8859-1"?>
<modeling>
 <generator>
  <i name="program" type="string">vasp </i>
  <i name="version" type="string">6.3.2  </i>
  <i name="subversion" type="string">27Jun22 (build Jul 17 2022 02:16:49) gamma-only                       parallel </i>
  <i name="platform" type="string">AOCC </i>
  <i name="date" type="string">2024 02 07 </i>
  <i name="time" type="string">04:32:05 </i>
 </generator>
 <incar>
  <i type="string" name="PREC">NORMAL</i>
  <i type="string" name="ALGO">FAST</i>
  <i type="int" name="NSIM">   128</i>
  <i type="int" name="ISPIN">     1</i>
  <i type="int" name="MAXMIX">    80</i>
  <i type="int" name="NELM">  1000</i>
  <i type="int" name="IBRION">     0</i>
  <i name="EDIFF">      0.00010000</i>
  <i type="int" name="NSW">    10</i>
  <i type="int" name="ISYM">     0</i>
  <i type="int" name="NBLOCK">     1</i>
  <i name="ENCUT">    400.00000000</i>
  <i name="POTIM">      1.00000000</i>
  <i name="TEBEG">    300.00000000</i>
  <i name="TEEND">    300.00000000</i>
  <i name="SMASS">      3.00000000</i>
  <i type="string" name="LREAL">Auto</i>
  <i type="logical" name="LPLANE"> T  </i>
  <i type="int" name="ISMEAR">     0</i>
  <i name="SIGMA">      0.02000000</i>
  <i type="int" name="NWRITE">     0</i>
  <i type="logical" name="LWAVE"> F  </i>
  <i type="logical" name="LCHARG"> F  </i>
  <i type="logical" name="LSCALAPACK"> F  </i>
  <i type="logical" name="LSCALU"> F  </i>
  <v type="int" name="RANDOM_SEED">******     0     0</v>
  <i type="string" name="GGA">PE</i>
  <i type="int" name="MDALGO">     2</i>
 </incar>
 <primitive_cell>
  <structure name="primitive_cell" >
   <crystal>
    <varray name="basis" >
     <v>      23.00000000       0.00000000       0.00000000 </v>
     <v>       0.00000000      23.00000000       0.00000000 </v>
     <v>       0.00000000       0.00000000      23.00000000 </v>
    </varray>
    <i name="volume">  12167.00000000 </i>
    <varray name="rec_basis" >
     <v>       0.04347826       0.00000000       0.00000000 </v>
     <v>       0.00000000       0.04347826       0.00000000 </v>
     <v>       0.00000000       0.00000000       0.04347826 </v>
    </varray>
   </crystal>
   <varray name="positions" >
    <v>       0.40130367       0.61023612       0.55112398 </v>
    <v>       0.53933346       0.61423662       0.55474046 </v>
    <v>       0.46573094       0.61105867       0.17232154 </v>
    <v>       0.39800805       0.41595973       0.54840613 </v>
    <v>       0.53488854       0.40820236       0.55615052 </v>
    <v>       0.46396727       0.40222774       0.18441744 </v>
    <v>       0.48271120       0.53776190       0.39350330 </v>
    <v>       0.45947928       0.50995343       0.26400711 </v>
    <v>       0.32323021       0.52771590       0.25579352 </v>
    <v>       0.26448235       0.54935198       0.37808800 </v>
    <v>       0.36545160       0.51191181       0.46151182 </v>
    <v>       0.47372090       0.67615120       0.39007353 </v>
    <v>       0.43338350       0.70649318       0.26415131 </v>
    <v>       0.26152701       0.68631733       0.40180319 </v>
    <v>       0.37225711       0.71356451       0.47137103 </v>
    <v>       0.39180330       0.27709892       0.54696072 </v>
    <v>       0.52755685       0.27448406       0.55288199 </v>
    <v>       0.57387681       0.16103513       0.50054205 </v>
    <v>       0.56290273       0.85453099       0.48108571 </v>
    <v>       0.57168415       0.71998743       0.47379633 </v>
    <v>       0.58505417       0.50809548       0.47980862 </v>
    <v>       0.36888680       0.58773972       0.68490739 </v>
    <v>       0.47304408       0.61412051       0.76703296 </v>
    <v>       0.36832542       0.45053944       0.67864539 </v>
    <v>       0.46883704       0.41360566       0.76164715 </v>
    <v>       0.42800227       0.51188636       0.84915357 </v>
    <v>       0.48069386       0.27755234       0.76725745 </v>
    <v>       0.57837092       0.58270741       0.68242809 </v>
    <v>       0.57422635       0.44658386       0.68238148 </v>
    <v>       0.57780646       0.24988484       0.67576397 </v>
    <v>       0.58039377       0.14058912       0.59684318 </v>
    <v>       0.32934804       0.62483695       0.23861384 </v>
    <v>       0.37062308       0.59455359       0.15565761 </v>
    <v>       0.26780769       0.47303937       0.19438988 </v>
    <v>       0.36870390       0.43143225       0.17456872 </v>
    <v>       0.34072371       0.70489393       0.29969954 </v>
    <v>       0.55616892       0.92973589       0.54296121 </v>
    <v>       0.47202701       0.30489065       0.18635237 </v>
    <v>       0.48341072       0.15761665       0.46199477 </v>
    <v>       0.31501766       0.23736182       0.50093868 </v>
    <v>       0.47399399       0.84046809       0.44172444 </v>
    <v>       0.46391185       0.79984509       0.26872851 </v>
    <v>       0.38104255       0.79940347       0.51878162 </v>
    <v>       0.18541429       0.49859552       0.40652098 </v>
    <v>       0.63877126       0.15870963       0.42765389 </v>
    <v>       0.62981901       0.87361108       0.41131102 </v>
    <v>       0.65998832       0.66965532       0.45254085 </v>
    <v>       0.51797723       0.63913284       0.09470451 </v>
    <v>       0.51241555       0.43913451       0.10783208 </v>
    <v>       0.73117610       0.60733344       0.41926212 </v>
    <v>       0.74780451       0.65617051       0.46826349 </v>
    <v>       0.28921952       0.60451385       0.73992299 </v>
    <v>       0.29335816       0.42350153       0.73635216 </v>
    <v>       0.46337656       0.70417764       0.80547664 </v>
    <v>       0.38630610       0.26264603       0.64492473 </v>
    <v>       0.63439928       0.16988504       0.68271507 </v>
    <v>       0.64247158       0.65097339       0.71186314 </v>
    <v>       0.66041447       0.42498269       0.72601986 </v>
    <v>       0.63641647       0.33010548       0.68516990 </v>
    <v>       0.27597121       0.72375822       0.35046474 </v>
    <v>       0.20014805       0.69384590       0.42006920 </v>
    <v>       0.36353698       0.51644688       0.84322984 </v>
    <v>       0.44628059       0.50926111       0.91090833 </v>
    <v>       0.47464421       0.24571875       0.82291082 </v>
    <v>       0.43088098       0.26580691       0.72714199 </v>
    <v>       0.68704242       0.58729463       0.53639137 </v>
    <v>       0.76297465       0.57818926       0.52709441 </v>
    <v>       0.71312550       0.48572067       0.51526682 </v>
    <v>       0.75028863       0.50620432       0.45161565 </v>
    <v>       0.65925493       0.46532870       0.42038004 </v>
    <v>       0.65411239       0.54016564       0.40707930 </v>
    <v>       0.72093518       0.57775122       0.50398497 </v>
    <v>       0.71211962       0.51683764       0.47881473 </v>
    <v>       0.65665158       0.50784810       0.44244127 </v>
    <v>       0.71878672       0.62377266       0.45878077 </v>
    <v>       0.56960331       0.12227357       0.55977316 </v>
    <v>       0.47071707       0.59740605       0.54812518 </v>
    <v>       0.52182977       0.61462107       0.12877026 </v>
    <v>       0.40750082       0.59736024       0.13407111 </v>
    <v>       0.46783870       0.42694463       0.54359054 </v>
    <v>       0.51534671       0.40690227       0.13490871 </v>
    <v>       0.40224820       0.41751353       0.15225609 </v>
    <v>       0.31720488       0.58848685       0.21858970 </v>
    <v>       0.30611215       0.47350289       0.21202322 </v>
    <v>       0.45827953       0.67268464       0.20789423 </v>
    <v>       0.48112935       0.56005961       0.21918388 </v>
    <v>       0.47523667       0.44592116       0.23987569 </v>
    <v>       0.53330306       0.50674491       0.43127429 </v>
    <v>       0.49185012       0.51950735       0.32613396 </v>
    <v>       0.38955740       0.51567284       0.27580832 </v>
    <v>       0.28117808       0.52780855       0.31270834 </v>
    <v>       0.30463221       0.51581847       0.42580079 </v>
    <v>       0.41918732       0.51640742       0.41607713 </v>
    <v>       0.52148960       0.71564970       0.42276562 </v>
    <v>       0.47306041       0.69031866       0.32082838 </v>
    <v>       0.36498569       0.68427052       0.27165499 </v>
    <v>       0.30310262       0.70596931       0.45639289 </v>
    <v>       0.40845612       0.69077230       0.41497502 </v>
    <v>       0.48809717       0.60794199       0.40123263 </v>
    <v>       0.27407432       0.61940122       0.38150790 </v>
    <v>       0.57897184       0.44955590       0.52010594 </v>
    <v>       0.55256494       0.67777970       0.52815617 </v>
    <v>       0.36631002       0.44952526       0.49486958 </v>
    <v>       0.36768355       0.56475658       0.50878073 </v>
    <v>       0.38735693       0.67656005       0.52998280 </v>
    <v>       0.19580002       0.53647451       0.39125991 </v>
    <v>       0.46012961       0.26293058       0.53436861 </v>
    <v>       0.52252258       0.14389807       0.45394305 </v>
    <v>       0.50933202       0.86253428       0.43405537 </v>
    <v>       0.56971299       0.23107361       0.51741628 </v>
    <v>       0.55245248       0.88768217       0.54338067 </v>
    <v>       0.35592818       0.24521575       0.49460272 </v>
    <v>       0.46820908       0.33712743       0.21323310 </v>
    <v>       0.38226628       0.34760454       0.54564314 </v>
    <v>       0.54607768       0.34118852       0.53748038 </v>
    <v>       0.57007117       0.78600946       0.49860853 </v>
    <v>       0.38962740       0.78214171       0.48124103 </v>
    <v>       0.43134494       0.77695931       0.25479642 </v>
    <v>       0.63619352       0.14832028       0.46844030 </v>
    <v>       0.62161037       0.88260399       0.45165162 </v>
    <v>       0.63438394       0.70500097       0.44665647 </v>
    <v>       0.30269822       0.60875390       0.70022500 </v>
    <v>       0.37800064       0.60312391       0.61701020 </v>
    <v>       0.55619124       0.61462816       0.62345330 </v>
    <v>       0.52803875       0.58814797       0.73159933 </v>
    <v>       0.41615576       0.62227162       0.72512591 </v>
    <v>       0.30303643       0.42786139       0.69556650 </v>
    <v>       0.37431443       0.44370944       0.60901712 </v>
    <v>       0.54706211       0.41516160       0.62576549 </v>
    <v>       0.52793691       0.44290227       0.73569130 </v>
    <v>       0.41786388       0.41198203       0.71216634 </v>
    <v>       0.37863843       0.51835003       0.69718729 </v>
    <v>       0.59144866       0.51393920       0.67058739 </v>
    <v>       0.49318777       0.67738756       0.79248260 </v>
    <v>       0.45774769       0.56946985       0.81988088 </v>
    <v>       0.44862203       0.45122363       0.81777058 </v>
    <v>       0.36843655       0.25023121       0.60869558 </v>
    <v>       0.53234362       0.26495579       0.62334274 </v>
    <v>       0.54153167       0.25712247       0.73662054 </v>
    <v>       0.59740831       0.18134833       0.66589484 </v>
    <v>       0.48168427       0.34734845       0.78229827 </v>
    <v>       0.64044582       0.60950018       0.70447394 </v>
    <v>       0.63339255       0.40869626       0.69798673 </v>
    <v>       0.63712928       0.28817613       0.67641962 </v>
    <v>       0.57806292       0.56526564       0.52167588 </v>
   </varray>
  </structure>
  <varray name="primitive_index" >
   <v type="int" >        1 </v>
   <v type="int" >        2 </v>
   <v type="int" >        3 </v>
   <v type="int" >        4 </v>
   <v type="int" >        5 </v>
   <v type="int" >        6 </v>
   <v type="int" >        7 </v>
   <v type="int" >        8 </v>
   <v type="int" >        9 </v>
   <v type="int" >       10 </v>
   <v type="int" >       11 </v>
   <v type="int" >       12 </v>
   <v type="int" >       13 </v>
   <v type="int" >       14 </v>
   <v type="int" >       15 </v>
   <v type="int" >       16 </v>
   <v type="int" >       17 </v>
   <v type="int" >       18 </v>
   <v type="int" >       19 </v>
   <v type="int" >       20 </v>
   <v type="int" >       21 </v>
   <v type="int" >       22 </v>
   <v type="int" >       23 </v>
   <v type="int" >       24 </v>
   <v type="int" >       25 </v>
   <v type="int" >       26 </v>
   <v type="int" >       27 </v>
   <v type="int" >       28 </v>
   <v type="int" >       29 </v>
   <v type="int" >       30 </v>
   <v type="int" >       31 </v>
   <v type="int" >       32 </v>
   <v type="int" >       33 </v>
   <v type="int" >       34 </v>
   <v type="int" >       35 </v>
   <v type="int" >       36 </v>
   <v type="int" >       37 </v>
   <v type="int" >       38 </v>
   <v type="int" >       39 </v>
   <v type="int" >       40 </v>
   <v type="int" >       41 </v>
   <v type="int" >       42 </v>
   <v type="int" >       43 </v>
   <v type="int" >       44 </v>
   <v type="int" >       45 </v>
   <v type="int" >       46 </v>
   <v type="int" >       47 </v>
   <v type="int" >       48 </v>
   <v type="int" >       49 </v>
   <v type="int" >       50 </v>
   <v type="int" >       51 </v>
   <v type="int" >       52 </v>
   <v type="int" >       53 </v>
   <v type="int" >       54 </v>
   <v type="int" >       55 </v>
   <v type="int" >       56 </v>
   <v type="int" >       57 </v>
   <v type="int" >       58 </v>
   <v type="int" >       59 </v>
   <v type="int" >       60 </v>
   <v type="int" >       61 </v>
   <v type="int" >       62 </v>
   <v type="int" >       63 </v>
   <v type="int" >       64 </v>
   <v type="int" >       65 </v>
   <v type="int" >       66 </v>
   <v type="int" >       67 </v>
   <v type="int" >       68 </v>
   <v type="int" >       69 </v>
   <v type="int" >       70 </v>
   <v type="int" >       71 </v>
   <v type="int" >       72 </v>
   <v type="int" >       73 </v>
   <v type="int" >       74 </v>
   <v type="int" >       75 </v>
   <v type="int" >       76 </v>
   <v type="int" >       77 </v>
   <v type="int" >       78 </v>
   <v type="int" >       79 </v>
   <v type="int" >       80 </v>
   <v type="int" >       81 </v>
   <v type="int" >       82 </v>
   <v type="int" >       83 </v>
   <v type="int" >       84 </v>
   <v type="int" >       85 </v>
   <v type="int" >       86 </v>
   <v type="int" >       87 </v>
   <v type="int" >       88 </v>
   <v type="int" >       89 </v>
   <v type="int" >       90 </v>
   <v type="int" >       91 </v>
   <v type="int" >       92 </v>
   <v type="int" >       93 </v>
   <v type="int" >       94 </v>
   <v type="int" >       95 </v>
   <v type="int" >       96 </v>
   <v type="int" >       97 </v>
   <v type="int" >       98 </v>
   <v type="int" >       99 </v>
   <v type="int" >      100 </v>
   <v type="int" >      101 </v>
   <v type="int" >      102 </v>
   <v type="int" >      103 </v>
   <v type="int" >      104 </v>
   <v type="int" >      105 </v>
   <v type="int" >      106 </v>
   <v type="int" >      107 </v>
   <v type="int" >      108 </v>
   <v type="int" >      109 </v>
   <v type="int" >      110 </v>
   <v type="int" >      111 </v>
   <v type="int" >      112 </v>
   <v type="int" >      113 </v>
   <v type="int" >      114 </v>
   <v type="int" >      115 </v>
   <v type="int" >      116 </v>
   <v type="int" >      117 </v>
   <v type="int" >      118 </v>
   <v type="int" >      119 </v>
   <v type="int" >      120 </v>
   <v type="int" >      121 </v>
   <v type="int" >      122 </v>
   <v type="int" >      123 </v>
   <v type="int" >      124 </v>
   <v type="int" >      125 </v>
   <v type="int" >      126 </v>
   <v type="int" >      127 </v>
   <v type="int" >      128 </v>
   <v type="int" >      129 </v>
   <v type="int" >      130 </v>
   <v type="int" >      131 </v>
   <v type="int" >      132 </v>
   <v type="int" >      133 </v>
   <v type="int" >      134 </v>
   <v type="int" >      135 </v>
   <v type="int" >      136 </v>
   <v type="int" >      137 </v>
   <v type="int" >      138 </v>
   <v type="int" >      139 </v>
   <v type="int" >      140 </v>
   <v type="int" >      141 </v>
   <v type="int" >      142 </v>
   <v type="int" >      143 </v>
   <v type="int" >      144 </v>
   <v type="int" >      145 </v>
  </varray>
 </primitive_cell>
 <kpoints>
  <generation param="Gamma">
   <v type="int" name="divisions">       1        1        1 </v>
   <v name="usershift">      0.00000000       0.00000000       0.00000000 </v>
   <v name="genvec1">      1.00000000       0.00000000       0.00000000 </v>
   <v name="genvec2">      0.00000000       1.00000000       0.00000000 </v>
   <v name="genvec3">      0.00000000       0.00000000       1.00000000 </v>
   <v name="shift">      0.00000000       0.00000000       0.00000000 </v>
  </generation>
  <varray name="kpointlist" >
   <v>       0.00000000       0.00000000       0.00000000 </v>
  </varray>
  <varray name="weights" >
   <v>       1.00000000 </v>
  </varray>
 </kpoints>
 <parameters>
  <separator name="general" >
   <i type="string" name="SYSTEM">unknown system</i>
   <i type="logical" name="LCOMPAT"> F  </i>
  </separator>
  <separator name="electronic" >
   <i type="string" name="PREC">normal</i>
   <i name="ENMAX">    400.00000000</i>
   <i name="ENAUG">    644.87300000</i>
   <i name="EDIFF">      0.00010000</i>
   <i type="int" name="IALGO">    68</i>
   <i type="int" name="IWAVPR">    12</i>
   <i type="int" name="NBANDS">   376</i>
   <i type="int" name="NBANDSLOW">    -1</i>
   <i type="int" name="NBANDSHIGH">    -1</i>
   <i name="NELECT">    598.00000000</i>
   <i type="int" name="TURBO">     0</i>
   <i type="int" name="IRESTART">     0</i>
   <i type="int" name="NREBOOT">     0</i>
   <i type="int" name="NMIN">     0</i>
   <i name="EREF">      0.00000000</i>
   <separator name="electronic smearing" >
    <i type="int" name="ISMEAR">     0</i>
    <i name="SIGMA">      0.02000000</i>
    <i name="KSPACING">      0.50000000</i>
    <i type="logical" name="KGAMMA"> T  </i>
    <i type="logical" name="KBLOWUP"> T  </i>
   </separator>
   <separator name="electronic projectors" >
    <i type="logical" name="LREAL"> T  </i>
    <v name="ROPT">     -0.00050000     -0.00050000     -0.00050000     -0.00050000     -0.00050000</v>
    <i type="int" name="LMAXPAW">  -100</i>
    <i type="int" name="LMAXMIX">     2</i>
    <i type="logical" name="NLSPLINE"> F  </i>
   </separator>
   <separator name="electronic startup" >
    <i type="int" name="ISTART">     0</i>
    <i type="int" name="ICHARG">     2</i>
    <i type="int" name="INIWAV">     1</i>
   </separator>
   <separator name="electronic spin" >
    <i type="int" name="ISPIN">     1</i>
    <i type="logical" name="LNONCOLLINEAR"> F  </i>
    <v name="MAGMOM">      1.00000000      1.00000000      1.00000000      1.00000000      1.00000000      1.00000000      1.00000000      1.00000000      1.00000000      1.00000000      1.00000000      1.00000000      1.00000000      1.00000000      1.00000000      1.00000000      1.00000000      1.00000000      1.00000000      1.00000000
      1.00000000      1.00000000      1.00000000      1.00000000      1.00000000      1.00000000      1.00000000      1.00000000      1.00000000      1.00000000      1.00000000      1.00000000      1.00000000      1.00000000      1.00000000      1.00000000      1.00000000      1.00000000      1.00000000      1.00000000
      1.00000000      1.00000000      1.00000000      1.00000000      1.00000000      1.00000000      1.00000000      1.00000000      1.00000000      1.00000000      1.00000000      1.00000000      1.00000000      1.00000000      1.00000000      1.00000000      1.00000000      1.00000000      1.00000000      1.00000000
      1.00000000      1.00000000      1.00000000      1.00000000      1.00000000      1.00000000      1.00000000      1.00000000      1.00000000      1.00000000      1.00000000      1.00000000      1.00000000      1.00000000      1.00000000      1.00000000      1.00000000      1.00000000      1.00000000      1.00000000
      1.00000000      1.00000000      1.00000000      1.00000000      1.00000000      1.00000000      1.00000000      1.00000000      1.00000000      1.00000000      1.00000000      1.00000000      1.00000000      1.00000000      1.00000000      1.00000000      1.00000000      1.00000000      1.00000000      1.00000000
      1.00000000      1.00000000      1.00000000      1.00000000      1.00000000      1.00000000      1.00000000      1.00000000      1.00000000      1.00000000      1.00000000      1.00000000      1.00000000      1.00000000      1.00000000      1.00000000      1.00000000      1.00000000      1.00000000      1.00000000
      1.00000000      1.00000000      1.00000000      1.00000000      1.00000000      1.00000000      1.00000000      1.00000000      1.00000000      1.00000000      1.00000000      1.00000000      1.00000000      1.00000000      1.00000000      1.00000000      1.00000000      1.00000000      1.00000000      1.00000000
      1.00000000      1.00000000      1.00000000      1.00000000      1.00000000</v>
    <i name="NUPDOWN">     -1.00000000</i>
    <i type="logical" name="LSORBIT"> F  </i>
    <v name="SAXIS">      0.00000000      0.00000000      1.00000000</v>
    <i type="logical" name="LSPIRAL"> F  </i>
    <v name="QSPIRAL">      0.00000000      0.00000000      0.00000000</v>
    <i type="logical" name="LZEROZ"> F  </i>
   </separator>
   <separator name="electronic exchange-correlation" >
    <i type="logical" name="LASPH"> F  </i>
    <i type="logical" name="LMETAGGA"> F  </i>
   </separator>
   <separator name="electronic convergence" >
    <i type="int" name="NELM">  1000</i>
    <i type="int" name="NELMDL">     0</i>
    <i type="int" name="NELMIN">     2</i>
    <i name="ENINI">    400.00000000</i>
    <separator name="electronic convergence detail" >
     <i type="logical" name="LDIAG"> T  </i>
     <i type="logical" name="LSUBROT"> F  </i>
     <i name="WEIMIN">      0.00100000</i>
     <i name="EBREAK">      0.00000007</i>
     <i name="DEPER">      0.30000000</i>
     <i type="int" name="NRMM">     4</i>
     <i name="TIME">      0.40000000</i>
    </separator>
   </separator>
   <separator name="electronic mixer" >
    <i name="AMIX">      0.40000000</i>
    <i name="BMIX">      1.00000000</i>
    <i name="AMIN">      0.10000000</i>
    <i name="AMIX_MAG">      1.60000000</i>
    <i name="BMIX_MAG">      1.00000000</i>
    <separator name="electronic mixer details" >
     <i type="int" name="IMIX">     4</i>
     <i type="logical" name="MIXFIRST"> F  </i>
     <i type="int" name="MAXMIX">    80</i>
     <i name="WC">    100.00000000</i>
     <i type="int" name="INIMIX">     1</i>
     <i type="int" name="MIXPRE">     1</i>
     <i type="int" name="MREMOVE">     5</i>
    </separator>
   </separator>
   <separator name="electronic dipolcorrection" >
    <i type="logical" name="LDIPOL"> F  </i>
    <i type="logical" name="LMONO"> F  </i>
    <i type="int" name="IDIPOL">     0</i>
    <i name="EPSILON">      1.00000000</i>
    <v name="DIPOL">   -100.00000000   -100.00000000   -100.00000000</v>
    <i name="EFIELD">      0.00000000</i>
   </separator>
  </separator>
  <separator name="grids" >
   <i type="int" name="NGX">   120</i>
   <i type="int" name="NGY">   120</i>
   <i type="int" name="NGZ">   120</i>
   <i type="int" name="NGXF">   240</i>
   <i type="int" name="NGYF">   240</i>
   <i type="int" name="NGZF">   240</i>
   <i type="logical" name="ADDGRID"> F  </i>
  </separator>
  <separator name="ionic" >
   <i type="int" name="NSW">    10</i>
   <i type="int" name="IBRION">     0</i>
   <i type="int" name="MDALGO">     2</i>
   <i type="int" name="ISIF">     0</i>
   <i name="PSTRESS">      0.00000000</i>
   <i name="EDIFFG">      0.00100000</i>
   <i type="int" name="NFREE">     0</i>
   <i name="POTIM">      1.00000000</i>
   <i name="SMASS">      3.00000000</i>
   <i name="SCALEE">      1.00000000</i>
  </separator>
  <separator name="ionic md" >
   <i name="TEBEG">    300.00000000</i>
   <i name="TEEND">    300.00000000</i>
   <i type="int" name="NBLOCK">     1</i>
   <i type="int" name="KBLOCK">    10</i>
   <i type="int" name="NPACO">   256</i>
   <i name="APACO">     10.00000000</i>
  </separator>
  <separator name="symmetry" >
   <i type="int" name="ISYM">     0</i>
   <i name="SYMPREC">      0.00001000</i>
  </separator>
  <separator name="dos" >
   <i type="int" name="LORBIT">     0</i>
   <v name="RWIGS">     -1.00000000     -1.00000000     -1.00000000     -1.00000000     -1.00000000</v>
   <i type="int" name="NEDOS">   301</i>
   <i name="EMIN">     10.00000000</i>
   <i name="EMAX">    -10.00000000</i>
   <i name="EFERMI">      0.00000000</i>
  </separator>
  <separator name="writing" >
   <i type="int" name="NWRITE">     0</i>
   <i type="logical" name="LWAVE"> F  </i>
   <i type="logical" name="LDOWNSAMPLE"> F  </i>
   <i type="logical" name="LCHARG"> F  </i>
   <i type="logical" name="LPARD"> F  </i>
   <i type="logical" name="LVTOT"> F  </i>
   <i type="logical" name="LVHAR"> F  </i>
   <i type="logical" name="LELF"> F  </i>
   <i type="logical" name="LOPTICS"> F  </i>
   <v name="STM">      0.00000000      0.00000000      0.00000000      0.00000000      0.00000000      0.00000000      0.00000000</v>
  </separator>
  <separator name="performance" >
   <i type="int" name="NPAR">     8</i>
   <i type="int" name="NSIM">   128</i>
   <i type="int" name="NBLK">    -1</i>
   <i type="logical" name="LPLANE"> T  </i>
   <i type="logical" name="LSCALAPACK"> F  </i>
   <i type="logical" name="LSCAAWARE"> F  </i>
   <i type="logical" name="LSCALU"> F  </i>
   <i type="logical" name="LASYNC"> F  </i>
   <i type="logical" name="LORBITALREAL"> F  </i>
  </separator>
  <separator name="miscellaneous" >
   <i type="int" name="IDIOT">     3</i>
   <i type="int" name="PHON_NSTRUCT">    -1</i>
   <i type="logical" name="LMUSIC"> F  </i>
   <v name="POMASS">     28.08500000      1.00000000     12.01100000     14.00100000     16.00000000</v>
   <v name="DARWINR">      0.00000000      0.00000000      0.00000000      0.00000000      0.00000000</v>
   <v name="DARWINV">      1.00000000      1.00000000      1.00000000      1.00000000      1.00000000</v>
   <i type="logical" name="LCORR"> T  </i>
  </separator>
  <i type="logical" name="GGA_COMPAT"> T  </i>
  <i type="logical" name="LBERRY"> F  </i>
  <i type="int" name="ICORELEVEL">     0</i>
  <i type="logical" name="LDAU"> F  </i>
  <i type="int" name="I_CONSTRAINED_M">     0</i>
  <separator name="electronic exchange-correlation" >
   <i type="string" name="GGA">PE</i>
   <i type="int" name="VOSKOWN">     0</i>
   <i type="logical" name="LHFCALC"> F  </i>
   <i type="string" name="PRECFOCK"></i>
   <i type="logical" name="LSYMGRAD"> F  </i>
   <i type="logical" name="LHFONE"> F  </i>
   <i type="logical" name="LRHFCALC"> F  </i>
   <i type="logical" name="LTHOMAS"> F  </i>
   <i type="logical" name="LMODELHF"> F  </i>
   <i type="logical" name="LFOCKACE"> F  </i>
   <i name="ENCUT4O">     -1.00000000</i>
   <i type="int" name="EXXOEP">     0</i>
   <i type="int" name="FOURORBIT">     0</i>
   <i name="AEXX">      0.00000000</i>
   <i name="HFALPHA">      0.00000000</i>
   <i name="MCALPHA">      0.00000000</i>
   <i name="ALDAX">      1.00000000</i>
   <i name="AGGAX">      1.00000000</i>
   <i name="ALDAC">      1.00000000</i>
   <i name="AGGAC">      1.00000000</i>
   <i type="int" name="NKREDX">     1</i>
   <i type="int" name="NKREDY">     1</i>
   <i type="int" name="NKREDZ">     1</i>
   <i type="logical" name="SHIFTRED"> F  </i>
   <i type="logical" name="ODDONLY"> F  </i>
   <i type="logical" name="EVENONLY"> F  </i>
   <i type="int" name="LMAXFOCK">     0</i>
   <i type="int" name="NMAXFOCKAE">     0</i>
   <i type="logical" name="LFOCKAEDFT"> F  </i>
   <i name="HFSCREEN">      0.00000000</i>
   <i name="HFSCREENC">      0.00000000</i>
   <i type="int" name="NBANDSGWLOW">     0</i>
  </separator>
  <separator name="vdW DFT" >
   <i type="logical" name="LUSE_VDW"> F  </i>
   <i name="Zab_VDW">     -0.84910000</i>
   <i name="PARAM1">      0.12340000</i>
   <i name="PARAM2">      1.00000000</i>
   <i name="PARAM3">      0.00000000</i>
  </separator>
  <separator name="model GW" >
   <i type="int" name="MODEL_GW">     0</i>
   <i name="MODEL_EPS0">     50.34620690</i>
   <i name="MODEL_ALPHA">      1.00000000</i>
  </separator>
  <separator name="linear response parameters" >
   <i type="logical" name="LEPSILON"> F  </i>
   <i type="logical" name="LRPA"> F  </i>
   <i type="logical" name="LNABLA"> F  </i>
   <i type="logical" name="LVEL"> F  </i>
   <i name="CSHIFT">      0.10000000</i>
   <i name="OMEGAMAX">     -1.00000000</i>
   <i name="DEG_THRESHOLD">      0.00200000</i>
   <i name="RTIME">     -0.10000000</i>
   <i name="WPLASMAI">      0.00000000</i>
   <v name="DFIELD">      0.00000000      0.00000000      0.00000000</v>
   <v name="WPLASMA">      0.00000000      0.00000000      0.00000000      0.00000000      0.00000000      0.00000000      0.00000000      0.00000000      0.00000000</v>
  </separator>
  <separator name="orbital magnetization" >
   <i type="logical" name="NUCIND"> F  </i>
   <v name="MAGPOS">      0.00000000      0.00000000      0.00000000</v>
   <i type="logical" name="LNICSALL"> T  </i>
   <i type="logical" name="ORBITALMAG"> F  </i>
   <i type="logical" name="LMAGBLOCH"> F  </i>
   <i type="logical" name="LCHIMAG"> F  </i>
   <i type="logical" name="LGAUGE"> T  </i>
   <i type="int" name="MAGATOM">     0</i>
   <v name="MAGDIPOL">      0.00000000      0.00000000      0.00000000</v>
   <v name="AVECCONST">      0.00000000      0.00000000      0.00000000</v>
  </separator>
  <separator name="response functions" >
   <i type="logical" name="LFINITE_TEMPERATURE"> F  </i>
   <i type="logical" name="LADDER"> F  </i>
   <i type="logical" name="LRPAFORCE"> F  </i>
   <i type="logical" name="LFXC"> F  </i>
   <i type="logical" name="LHARTREE"> T  </i>
   <i type="int" name="IBSE">     0</i>
   <v type="int" name="KPOINT">    -1     0     0     0</v>
   <i type="logical" name="LTCTC"> F  </i>
   <i type="logical" name="LTCTE"> F  </i>
   <i type="logical" name="LTETE"> F  </i>
   <i type="logical" name="LTRIPLET"> F  </i>
   <i type="logical" name="LFXCEPS"> F  </i>
   <i type="logical" name="LFXHEG"> F  </i>
   <i type="int" name="NATURALO">     2</i>
   <i type="logical" name="LHOLEGF"> F  </i>
   <i type="logical" name="L2ORDER"> F  </i>
   <i type="logical" name="LDMP1"> F  </i>
   <i type="logical" name="LMP2LT"> F  </i>
   <i type="logical" name="LSMP2LT"> F  </i>
   <i type="logical" name="LGWLF"> F  </i>
   <i name="ENCUTGW">     -2.00000000</i>
   <i name="ENCUTGWSOFT">     -2.00000000</i>
   <i name="ENCUTLF">     -1.00000000</i>
   <i type="logical" name="LESF_SPLINES"> F  </i>
   <i type="int" name="LMAXMP2">    -1</i>
   <i name="SCISSOR">      0.00000000</i>
   <i type="int" name="NOMEGA">     0</i>
   <i type="int" name="NOMEGAR">     0</i>
   <i type="int" name="NBANDSGW">    -1</i>
   <i type="int" name="NBANDSO">    -1</i>
   <i type="int" name="NBANDSV">    -1</i>
   <i type="int" name="NELMGW">     1</i>
   <i type="int" name="NELMHF">     1</i>
   <i type="int" name="DIM">     3</i>
   <i type="int" name="IESPILON">     4</i>
   <i type="int" name="ANTIRES">     0</i>
   <i name="OMEGAMAX">    -30.00000000</i>
   <i name="OMEGAMIN">    -30.00000000</i>
   <i name="OMEGATL">   -200.00000000</i>
   <i type="int" name="OMEGAGRID">     0</i>
   <i name="CSHIFT">     -0.10000000</i>
   <i type="logical" name="LSELFENERGY"> F  </i>
   <i type="logical" name="LSPECTRAL"> F  </i>
   <i type="logical" name="LSPECTRALGW"> F  </i>
   <i type="logical" name="LSINGLES"> F  </i>
   <i type="logical" name="LFERMIGW"> F  </i>
   <i type="logical" name="ODDONLYGW"> F  </i>
   <i type="logical" name="EVENONLYGW"> F  </i>
   <i type="int" name="NKREDLFX">     1</i>
   <i type="int" name="NKREDLFY">     1</i>
   <i type="int" name="NKREDLFZ">     1</i>
   <i type="int" name="MAXMEM">  2800</i>
   <i type="int" name="TELESCOPE">     0</i>
   <i type="int" name="NTAUPAR">    -1</i>
   <i type="int" name="NOMEGAPAR">    -1</i>
   <i name="DAMP_NEWTON">      0.80000001</i>
   <i name="LAMBDA">      1.00000000</i>
  </separator>
  <separator name="External order field" >
   <i name="OFIELD_KAPPA">      0.00000000</i>
   <v name="OFIELD_K">      0.00000000      0.00000000      0.00000000</v>
   <i name="OFIELD_Q6_NEAR">      0.00000000</i>
   <i name="OFIELD_Q6_FAR">      0.00000000</i>
   <i name="OFIELD_A">      0.00000000</i>
  </separator>
  <separator name="optional k-points parameters" >
   <i type="int" name="KPOINTS_OPT_MODE">     1</i>
   <i type="logical" name="LKPOINTS_OPT"> F  </i>
  </separator>
 </parameters>
 <atominfo>
  <atoms>     145 </atoms>
  <types>       5 </types>
  <array name="atoms" >
   <dimension dim="1">ion</dimension>
   <field type="string">element</field>
   <field type="int">atomtype</field>
   <set>
    <rc><c>Si</c><c>   1</c></rc>
    <rc><c>Si</c><c>   1</c></rc>
    <rc><c>Si</c><c>   1</c></rc>
    <rc><c>Si</c><c>   1</c></rc>
    <rc><c>Si</c><c>   1</c></rc>
    <rc><c>Si</c><c>   1</c></rc>
    <rc><c>Si</c><c>   1</c></rc>
    <rc><c>Si</c><c>   1</c></rc>
    <rc><c>Si</c><c>   1</c></rc>
    <rc><c>Si</c><c>   1</c></rc>
    <rc><c>Si</c><c>   1</c></rc>
    <rc><c>Si</c><c>   1</c></rc>
    <rc><c>Si</c><c>   1</c></rc>
    <rc><c>Si</c><c>   1</c></rc>
    <rc><c>Si</c><c>   1</c></rc>
    <rc><c>Si</c><c>   1</c></rc>
    <rc><c>Si</c><c>   1</c></rc>
    <rc><c>Si</c><c>   1</c></rc>
    <rc><c>Si</c><c>   1</c></rc>
    <rc><c>Si</c><c>   1</c></rc>
    <rc><c>Si</c><c>   1</c></rc>
    <rc><c>Si</c><c>   1</c></rc>
    <rc><c>Si</c><c>   1</c></rc>
    <rc><c>Si</c><c>   1</c></rc>
    <rc><c>Si</c><c>   1</c></rc>
    <rc><c>Si</c><c>   1</c></rc>
    <rc><c>Si</c><c>   1</c></rc>
    <rc><c>Si</c><c>   1</c></rc>
    <rc><c>Si</c><c>   1</c></rc>
    <rc><c>Si</c><c>   1</c></rc>
    <rc><c>H </c><c>   2</c></rc>
    <rc><c>H </c><c>   2</c></rc>
    <rc><c>H </c><c>   2</c></rc>
    <rc><c>H </c><c>   2</c></rc>
    <rc><c>H </c><c>   2</c></rc>
    <rc><c>H </c><c>   2</c></rc>
    <rc><c>H </c><c>   2</c></rc>
    <rc><c>H </c><c>   2</c></rc>
    <rc><c>H </c><c>   2</c></rc>
    <rc><c>H </c><c>   2</c></rc>
    <rc><c>H </c><c>   2</c></rc>
    <rc><c>H </c><c>   2</c></rc>
    <rc><c>H </c><c>   2</c></rc>
    <rc><c>H </c><c>   2</c></rc>
    <rc><c>H </c><c>   2</c></rc>
    <rc><c>H </c><c>   2</c></rc>
    <rc><c>H </c><c>   2</c></rc>
    <rc><c>H </c><c>   2</c></rc>
    <rc><c>H </c><c>   2</c></rc>
    <rc><c>H </c><c>   2</c></rc>
    <rc><c>H </c><c>   2</c></rc>
    <rc><c>H </c><c>   2</c></rc>
    <rc><c>H </c><c>   2</c></rc>
    <rc><c>H </c><c>   2</c></rc>
    <rc><c>H </c><c>   2</c></rc>
    <rc><c>H </c><c>   2</c></rc>
    <rc><c>H </c><c>   2</c></rc>
    <rc><c>H </c><c>   2</c></rc>
    <rc><c>H </c><c>   2</c></rc>
    <rc><c>H </c><c>   2</c></rc>
    <rc><c>H </c><c>   2</c></rc>
    <rc><c>H </c><c>   2</c></rc>
    <rc><c>H </c><c>   2</c></rc>
    <rc><c>H </c><c>   2</c></rc>
    <rc><c>H </c><c>   2</c></rc>
    <rc><c>H </c><c>   2</c></rc>
    <rc><c>H </c><c>   2</c></rc>
    <rc><c>H </c><c>   2</c></rc>
    <rc><c>H </c><c>   2</c></rc>
    <rc><c>H </c><c>   2</c></rc>
    <rc><c>H </c><c>   2</c></rc>
    <rc><c>C </c><c>   3</c></rc>
    <rc><c>C </c><c>   3</c></rc>
    <rc><c>C </c><c>   3</c></rc>
    <rc><c>N </c><c>   4</c></rc>
    <rc><c>O </c><c>   5</c></rc>
    <rc><c>O </c><c>   5</c></rc>
    <rc><c>O </c><c>   5</c></rc>
    <rc><c>O </c><c>   5</c></rc>
    <rc><c>O </c><c>   5</c></rc>
    <rc><c>O </c><c>   5</c></rc>
    <rc><c>O </c><c>   5</c></rc>
    <rc><c>O </c><c>   5</c></rc>
    <rc><c>O </c><c>   5</c></rc>
    <rc><c>O </c><c>   5</c></rc>
    <rc><c>O </c><c>   5</c></rc>
    <rc><c>O </c><c>   5</c></rc>
    <rc><c>O </c><c>   5</c></rc>
    <rc><c>O </c><c>   5</c></rc>
    <rc><c>O </c><c>   5</c></rc>
    <rc><c>O </c><c>   5</c></rc>
    <rc><c>O </c><c>   5</c></rc>
    <rc><c>O </c><c>   5</c></rc>
    <rc><c>O </c><c>   5</c></rc>
    <rc><c>O </c><c>   5</c></rc>
    <rc><c>O </c><c>   5</c></rc>
    <rc><c>O </c><c>   5</c></rc>
    <rc><c>O </c><c>   5</c></rc>
    <rc><c>O </c><c>   5</c></rc>
    <rc><c>O </c><c>   5</c></rc>
    <rc><c>O </c><c>   5</c></rc>
    <rc><c>O </c><c>   5</c></rc>
    <rc><c>O </c><c>   5</c></rc>
    <rc><c>O </c><c>   5</c></rc>
    <rc><c>O </c><c>   5</c></rc>
    <rc><c>O </c><c>   5</c></rc>
    <rc><c>O </c><c>   5</c></rc>
    <rc><c>O </c><c>   5</c></rc>
    <rc><c>O </c><c>   5</c></rc>
    <rc><c>O </c><c>   5</c></rc>
    <rc><c>O </c><c>   5</c></rc>
    <rc><c>O </c><c>   5</c></rc>
    <rc><c>O </c><c>   5</c></rc>
    <rc><c>O </c><c>   5</c></rc>
    <rc><c>O </c><c>   5</c></rc>
    <rc><c>O </c><c>   5</c></rc>
    <rc><c>O </c><c>   5</c></rc>
    <rc><c>O </c><c>   5</c></rc>
    <rc><c>O </c><c>   5</c></rc>
    <rc><c>O </c><c>   5</c></rc>
    <rc><c>O </c><c>   5</c></rc>
    <rc><c>O </c><c>   5</c></rc>
    <rc><c>O </c><c>   5</c></rc>
    <rc><c>O </c><c>   5</c></rc>
    <rc><c>O </c><c>   5</c></rc>
    <rc><c>O </c><c>   5</c></rc>
    <rc><c>O </c><c>   5</c></rc>
    <rc><c>O </c><c>   5</c></rc>
    <rc><c>O </c><c>   5</c></rc>
    <rc><c>O </c><c>   5</c></rc>
    <rc><c>O </c><c>   5</c></rc>
    <rc><c>O </c><c>   5</c></rc>
    <rc><c>O </c><c>   5</c></rc>
    <rc><c>O </c><c>   5</c></rc>
    <rc><c>O </c><c>   5</c></rc>
    <rc><c>O </c><c>   5</c></rc>
    <rc><c>O </c><c>   5</c></rc>
    <rc><c>O </c><c>   5</c></rc>
    <rc><c>O </c><c>   5</c></rc>
    <rc><c>O </c><c>   5</c></rc>
    <rc><c>O </c><c>   5</c></rc>
    <rc><c>O </c><c>   5</c></rc>
    <rc><c>O </c><c>   5</c></rc>
    <rc><c>O </c><c>   5</c></rc>
    <rc><c>O </c><c>   5</c></rc>
   </set>
  </array>
  <array name="atomtypes" >
   <dimension dim="1">type</dimension>
   <field type="int">atomspertype</field>
   <field type="string">element</field>
   <field>mass</field>
   <field>valence</field>
   <field type="string">pseudopotential</field>
   <set>
    <rc><c>  30</c><c>Si</c><c>     28.08500000</c><c>      4.00000000</c><c>  PAW_PBE Si 05Jan2001                  </c></rc>
    <rc><c>  41</c><c>H </c><c>      1.00000000</c><c>      1.00000000</c><c>  PAW_PBE H 15Jun2001                   </c></rc>
    <rc><c>   3</c><c>C </c><c>     12.01100000</c><c>      4.00000000</c><c>  PAW_PBE C 08Apr2002                   </c></rc>
    <rc><c>   1</c><c>N </c><c>     14.00100000</c><c>      5.00000000</c><c>  PAW_PBE N 08Apr2002                   </c></rc>
    <rc><c>  70</c><c>O </c><c>     16.00000000</c><c>      6.00000000</c><c>  PAW_PBE O 08Apr2002                   </c></rc>
   </set>
  </array>
 </atominfo>
 <structure name="initialpos" >
  <crystal>
   <varray name="basis" >
    <v>      23.00000000       0.00000000       0.00000000 </v>
    <v>       0.00000000      23.00000000       0.00000000 </v>
    <v>       0.00000000       0.00000000      23.00000000 </v>
   </varray>
   <i name="volume">  12167.00000000 </i>
   <varray name="rec_basis" >
    <v>       0.04347826       0.00000000       0.00000000 </v>
    <v>       0.00000000       0.04347826       0.00000000 </v>
    <v>       0.00000000       0.00000000       0.04347826 </v>
   </varray>
  </crystal>
  <varray name="positions" >
   <v>       0.40130367       0.61023612       0.55112398 </v>
   <v>       0.53933346       0.61423662       0.55474046 </v>
   <v>       0.46573094       0.61105867       0.17232154 </v>
   <v>       0.39800805       0.41595973       0.54840613 </v>
   <v>       0.53488854       0.40820236       0.55615052 </v>
   <v>       0.46396727       0.40222774       0.18441744 </v>
   <v>       0.48271120       0.53776190       0.39350330 </v>
   <v>       0.45947928       0.50995343       0.26400711 </v>
   <v>       0.32323021       0.52771590       0.25579352 </v>
   <v>       0.26448235       0.54935198       0.37808800 </v>
   <v>       0.36545160       0.51191181       0.46151182 </v>
   <v>       0.47372090       0.67615120       0.39007353 </v>
   <v>       0.43338350       0.70649318       0.26415131 </v>
   <v>       0.26152701       0.68631733       0.40180319 </v>
   <v>       0.37225711       0.71356451       0.47137103 </v>
   <v>       0.39180330       0.27709892       0.54696072 </v>
   <v>       0.52755685       0.27448406       0.55288199 </v>
   <v>       0.57387681       0.16103513       0.50054205 </v>
   <v>       0.56290273       0.85453099       0.48108571 </v>
   <v>       0.57168415       0.71998743       0.47379633 </v>
   <v>       0.58505417       0.50809548       0.47980862 </v>
   <v>       0.36888680       0.58773972       0.68490739 </v>
   <v>       0.47304408       0.61412051       0.76703296 </v>
   <v>       0.36832542       0.45053944       0.67864539 </v>
   <v>       0.46883704       0.41360566       0.76164715 </v>
   <v>       0.42800227       0.51188636       0.84915357 </v>
   <v>       0.48069386       0.27755234       0.76725745 </v>
   <v>       0.57837092       0.58270741       0.68242809 </v>
   <v>       0.57422635       0.44658386       0.68238148 </v>
   <v>       0.57780646       0.24988484       0.67576397 </v>
   <v>       0.58039377       0.14058912       0.59684318 </v>
   <v>       0.32934804       0.62483695       0.23861384 </v>
   <v>       0.37062308       0.59455359       0.15565761 </v>
   <v>       0.26780769       0.47303937       0.19438988 </v>
   <v>       0.36870390       0.43143225       0.17456872 </v>
   <v>       0.34072371       0.70489393       0.29969954 </v>
   <v>       0.55616892       0.92973589       0.54296121 </v>
   <v>       0.47202701       0.30489065       0.18635237 </v>
   <v>       0.48341072       0.15761665       0.46199477 </v>
   <v>       0.31501766       0.23736182       0.50093868 </v>
   <v>       0.47399399       0.84046809       0.44172444 </v>
   <v>       0.46391185       0.79984509       0.26872851 </v>
   <v>       0.38104255       0.79940347       0.51878162 </v>
   <v>       0.18541429       0.49859552       0.40652098 </v>
   <v>       0.63877126       0.15870963       0.42765389 </v>
   <v>       0.62981901       0.87361108       0.41131102 </v>
   <v>       0.65998832       0.66965532       0.45254085 </v>
   <v>       0.51797723       0.63913284       0.09470451 </v>
   <v>       0.51241555       0.43913451       0.10783208 </v>
   <v>       0.73117610       0.60733344       0.41926212 </v>
   <v>       0.74780451       0.65617051       0.46826349 </v>
   <v>       0.28921952       0.60451385       0.73992299 </v>
   <v>       0.29335816       0.42350153       0.73635216 </v>
   <v>       0.46337656       0.70417764       0.80547664 </v>
   <v>       0.38630610       0.26264603       0.64492473 </v>
   <v>       0.63439928       0.16988504       0.68271507 </v>
   <v>       0.64247158       0.65097339       0.71186314 </v>
   <v>       0.66041447       0.42498269       0.72601986 </v>
   <v>       0.63641647       0.33010548       0.68516990 </v>
   <v>       0.27597121       0.72375822       0.35046474 </v>
   <v>       0.20014805       0.69384590       0.42006920 </v>
   <v>       0.36353698       0.51644688       0.84322984 </v>
   <v>       0.44628059       0.50926111       0.91090833 </v>
   <v>       0.47464421       0.24571875       0.82291082 </v>
   <v>       0.43088098       0.26580691       0.72714199 </v>
   <v>       0.68704242       0.58729463       0.53639137 </v>
   <v>       0.76297465       0.57818926       0.52709441 </v>
   <v>       0.71312550       0.48572067       0.51526682 </v>
   <v>       0.75028863       0.50620432       0.45161565 </v>
   <v>       0.65925493       0.46532870       0.42038004 </v>
   <v>       0.65411239       0.54016564       0.40707930 </v>
   <v>       0.72093518       0.57775122       0.50398497 </v>
   <v>       0.71211962       0.51683764       0.47881473 </v>
   <v>       0.65665158       0.50784810       0.44244127 </v>
   <v>       0.71878672       0.62377266       0.45878077 </v>
   <v>       0.56960331       0.12227357       0.55977316 </v>
   <v>       0.47071707       0.59740605       0.54812518 </v>
   <v>       0.52182977       0.61462107       0.12877026 </v>
   <v>       0.40750082       0.59736024       0.13407111 </v>
   <v>       0.46783870       0.42694463       0.54359054 </v>
   <v>       0.51534671       0.40690227       0.13490871 </v>
   <v>       0.40224820       0.41751353       0.15225609 </v>
   <v>       0.31720488       0.58848685       0.21858970 </v>
   <v>       0.30611215       0.47350289       0.21202322 </v>
   <v>       0.45827953       0.67268464       0.20789423 </v>
   <v>       0.48112935       0.56005961       0.21918388 </v>
   <v>       0.47523667       0.44592116       0.23987569 </v>
   <v>       0.53330306       0.50674491       0.43127429 </v>
   <v>       0.49185012       0.51950735       0.32613396 </v>
   <v>       0.38955740       0.51567284       0.27580832 </v>
   <v>       0.28117808       0.52780855       0.31270834 </v>
   <v>       0.30463221       0.51581847       0.42580079 </v>
   <v>       0.41918732       0.51640742       0.41607713 </v>
   <v>       0.52148960       0.71564970       0.42276562 </v>
   <v>       0.47306041       0.69031866       0.32082838 </v>
   <v>       0.36498569       0.68427052       0.27165499 </v>
   <v>       0.30310262       0.70596931       0.45639289 </v>
   <v>       0.40845612       0.69077230       0.41497502 </v>
   <v>       0.48809717       0.60794199       0.40123263 </v>
   <v>       0.27407432       0.61940122       0.38150790 </v>
   <v>       0.57897184       0.44955590       0.52010594 </v>
   <v>       0.55256494       0.67777970       0.52815617 </v>
   <v>       0.36631002       0.44952526       0.49486958 </v>
   <v>       0.36768355       0.56475658       0.50878073 </v>
   <v>       0.38735693       0.67656005       0.52998280 </v>
   <v>       0.19580002       0.53647451       0.39125991 </v>
   <v>       0.46012961       0.26293058       0.53436861 </v>
   <v>       0.52252258       0.14389807       0.45394305 </v>
   <v>       0.50933202       0.86253428       0.43405537 </v>
   <v>       0.56971299       0.23107361       0.51741628 </v>
   <v>       0.55245248       0.88768217       0.54338067 </v>
   <v>       0.35592818       0.24521575       0.49460272 </v>
   <v>       0.46820908       0.33712743       0.21323310 </v>
   <v>       0.38226628       0.34760454       0.54564314 </v>
   <v>       0.54607768       0.34118852       0.53748038 </v>
   <v>       0.57007117       0.78600946       0.49860853 </v>
   <v>       0.38962740       0.78214171       0.48124103 </v>
   <v>       0.43134494       0.77695931       0.25479642 </v>
   <v>       0.63619352       0.14832028       0.46844030 </v>
   <v>       0.62161037       0.88260399       0.45165162 </v>
   <v>       0.63438394       0.70500097       0.44665647 </v>
   <v>       0.30269822       0.60875390       0.70022500 </v>
   <v>       0.37800064       0.60312391       0.61701020 </v>
   <v>       0.55619124       0.61462816       0.62345330 </v>
   <v>       0.52803875       0.58814797       0.73159933 </v>
   <v>       0.41615576       0.62227162       0.72512591 </v>
   <v>       0.30303643       0.42786139       0.69556650 </v>
   <v>       0.37431443       0.44370944       0.60901712 </v>
   <v>       0.54706211       0.41516160       0.62576549 </v>
   <v>       0.52793691       0.44290227       0.73569130 </v>
   <v>       0.41786388       0.41198203       0.71216634 </v>
   <v>       0.37863843       0.51835003       0.69718729 </v>
   <v>       0.59144866       0.51393920       0.67058739 </v>
   <v>       0.49318777       0.67738756       0.79248260 </v>
   <v>       0.45774769       0.56946985       0.81988088 </v>
   <v>       0.44862203       0.45122363       0.81777058 </v>
   <v>       0.36843655       0.25023121       0.60869558 </v>
   <v>       0.53234362       0.26495579       0.62334274 </v>
   <v>       0.54153167       0.25712247       0.73662054 </v>
   <v>       0.59740831       0.18134833       0.66589484 </v>
   <v>       0.48168427       0.34734845       0.78229827 </v>
   <v>       0.64044582       0.60950018       0.70447394 </v>
   <v>       0.63339255       0.40869626       0.69798673 </v>
   <v>       0.63712928       0.28817613       0.67641962 </v>
   <v>       0.57806292       0.56526564       0.52167588 </v>
  </varray>
  <varray name="selective"  type="logical" >
   <v type="logical" >  T  T  T </v>
   <v type="logical" >  T  T  T </v>
   <v type="logical" >  T  T  T </v>
   <v type="logical" >  T  T  T </v>
   <v type="logical" >  T  T  T </v>
   <v type="logical" >  T  T  T </v>
   <v type="logical" >  T  T  T </v>
   <v type="logical" >  T  T  T </v>
   <v type="logical" >  T  T  T </v>
   <v type="logical" >  T  T  T </v>
   <v type="logical" >  T  T  T </v>
   <v type="logical" >  T  T  T </v>
   <v type="logical" >  T  T  T </v>
   <v type="logical" >  T  T  T </v>
   <v type="logical" >  T  T  T </v>
   <v type="logical" >  T  T  T </v>
   <v type="logical" >  T  T  T </v>
   <v type="logical" >  T  T  T </v>
   <v type="logical" >  T  T  T </v>
   <v type="logical" >  T  T  T </v>
   <v type="logical" >  T  T  T </v>
   <v type="logical" >  T  T  T </v>
   <v type="logical" >  T  T  T </v>
   <v type="logical" >  T  T  T </v>
   <v type="logical" >  T  T  T </v>
   <v type="logical" >  T  T  T </v>
   <v type="logical" >  T  T  T </v>
   <v type="logical" >  T  T  T </v>
   <v type="logical" >  T  T  T </v>
   <v type="logical" >  T  T  T </v>
   <v type="logical" >  T  T  T </v>
   <v type="logical" >  T  T  T </v>
   <v type="logical" >  T  T  T </v>
   <v type="logical" >  T  T  T </v>
   <v type="logical" >  T  T  T </v>
   <v type="logical" >  T  T  T </v>
   <v type="logical" >  T  T  T </v>
   <v type="logical" >  T  T  T </v>
   <v type="logical" >  T  T  T </v>
   <v type="logical" >  T  T  T </v>
   <v type="logical" >  T  T  T </v>
   <v type="logical" >  T  T  T </v>
   <v type="logical" >  T  T  T </v>
   <v type="logical" >  T  T  T </v>
   <v type="logical" >  T  T  T </v>
   <v type="logical" >  T  T  T </v>
   <v type="logical" >  T  T  T </v>
   <v type="logical" >  T  T  T </v>
   <v type="logical" >  T  T  T </v>
   <v type="logical" >  T  T  T </v>
   <v type="logical" >  T  T  T </v>
   <v type="logical" >  T  T  T </v>
   <v type="logical" >  T  T  T </v>
   <v type="logical" >  T  T  T </v>
   <v type="logical" >  T  T  T </v>
   <v type="logical" >  T  T  T </v>
   <v type="logical" >  T  T  T </v>
   <v type="logical" >  T  T  T </v>
   <v type="logical" >  T  T  T </v>
   <v type="logical" >  T  T  T </v>
   <v type="logical" >  T  T  T </v>
   <v type="logical" >  T  T  T </v>
   <v type="logical" >  T  T  T </v>
   <v type="logical" >  T  T  T </v>
   <v type="logical" >  T  T  T </v>
   <v type="logical" >  T  T  T </v>
   <v type="logical" >  T  T  T </v>
   <v type="logical" >  T  T  T </v>
   <v type="logical" >  T  T  T </v>
   <v type="logical" >  T  T  T </v>
   <v type="logical" >  T  T  T </v>
   <v type="logical" >  T  T  T </v>
   <v type="logical" >  T  T  T </v>
   <v type="logical" >  T  T  T </v>
   <v type="logical" >  T  T  T </v>
   <v type="logical" >  T  T  T </v>
   <v type="logical" >  T  T  T </v>
   <v type="logical" >  T  T  T </v>
   <v type="logical" >  T  T  T </v>
   <v type="logical" >  T  T  T </v>
   <v type="logical" >  T  T  T </v>
   <v type="logical" >  T  T  T </v>
   <v type="logical" >  T  T  T </v>
   <v type="logical" >  T  T  T </v>
   <v type="logical" >  T  T  T </v>
   <v type="logical" >  T  T  T </v>
   <v type="logical" >  T  T  T </v>
   <v type="logical" >  T  T  T </v>
   <v type="logical" >  T  T  T </v>
   <v type="logical" >  T  T  T </v>
   <v type="logical" >  T  T  T </v>
   <v type="logical" >  T  T  T </v>
   <v type="logical" >  T  T  T </v>
   <v type="logical" >  T  T  T </v>
   <v type="logical" >  T  T  T </v>
   <v type="logical" >  T  T  T </v>
   <v type="logical" >  T  T  T </v>
   <v type="logical" >  T  T  T </v>
   <v type="logical" >  T  T  T </v>
   <v type="logical" >  T  T  T </v>
   <v type="logical" >  T  T  T </v>
   <v type="logical" >  T  T  T </v>
   <v type="logical" >  T  T  T </v>
   <v type="logical" >  T  T  T </v>
   <v type="logical" >  T  T  T </v>
   <v type="logical" >  T  T  T </v>
   <v type="logical" >  T  T  T </v>
   <v type="logical" >  T  T  T </v>
   <v type="logical" >  T  T  T </v>
   <v type="logical" >  T  T  T </v>
   <v type="logical" >  T  T  T </v>
   <v type="logical" >  T  T  T </v>
   <v type="logical" >  T  T  T </v>
   <v type="logical" >  T  T  T </v>
   <v type="logical" >  T  T  T </v>
   <v type="logical" >  T  T  T </v>
   <v type="logical" >  T  T  T </v>
   <v type="logical" >  T  T  T </v>
   <v type="logical" >  T  T  T </v>
   <v type="logical" >  T  T  T </v>
   <v type="logical" >  T  T  T </v>
   <v type="logical" >  T  T  T </v>
   <v type="logical" >  T  T  T </v>
   <v type="logical" >  T  T  T </v>
   <v type="logical" >  T  T  T </v>
   <v type="logical" >  T  T  T </v>
   <v type="logical" >  T  T  T </v>
   <v type="logical" >  T  T  T </v>
   <v type="logical" >  T  T  T </v>
   <v type="logical" >  T  T  T </v>
   <v type="logical" >  T  T  T </v>
   <v type="logical" >  T  T  T </v>
   <v type="logical" >  T  T  T </v>
   <v type="logical" >  T  T  T </v>
   <v type="logical" >  T  T  T </v>
   <v type="logical" >  T  T  T </v>
   <v type="logical" >  T  T  T </v>
   <v type="logical" >  T  T  T </v>
   <v type="logical" >  T  T  T </v>
   <v type="logical" >  T  T  T </v>
   <v type="logical" >  T  T  T </v>
   <v type="logical" >  T  T  T </v>
   <v type="logical" >  T  T  T </v>
   <v type="logical" >  T  T  T </v>
   <v type="logical" >  T  T  T </v>
  </varray>
  <varray name="velocities" >
   <v>      -0.00007676       0.00010084       0.00005891 </v>
   <v>       0.00003221      -0.00010706       0.00014179 </v>
   <v>      -0.00014899       0.00004311       0.00002950 </v>
   <v>       0.00006600      -0.00005809      -0.00008052 </v>
   <v>       0.00019819      -0.00009032       0.00005004 </v>
   <v>      -0.00011457       0.00012882       0.00006572 </v>
   <v>       0.00018484       0.00028351      -0.00037593 </v>
   <v>       0.00000824      -0.00008834      -0.00003828 </v>
   <v>      -0.00022048      -0.00018917      -0.00004670 </v>
   <v>       0.00000985      -0.00002978      -0.00002769 </v>
   <v>       0.00019886       0.00019009       0.00009903 </v>
   <v>      -0.00002967       0.00018287       0.00024248 </v>
   <v>      -0.00018494       0.00016343       0.00012431 </v>
   <v>      -0.00000875       0.00020252       0.00005652 </v>
   <v>       0.00013079      -0.00014602       0.00003617 </v>
   <v>      -0.00024992      -0.00014139      -0.00015296 </v>
   <v>       0.00016167      -0.00025095       0.00004445 </v>
   <v>      -0.00010637       0.00009414      -0.00013987 </v>
   <v>       0.00007453       0.00000388      -0.00012890 </v>
   <v>      -0.00020114      -0.00022920       0.00020260 </v>
   <v>       0.00006577       0.00000398      -0.00001761 </v>
   <v>       0.00001386      -0.00017197       0.00005338 </v>
   <v>      -0.00001919       0.00006765       0.00009742 </v>
   <v>       0.00016904      -0.00012470       0.00014292 </v>
   <v>       0.00003621       0.00002575      -0.00005234 </v>
   <v>       0.00009286      -0.00003919      -0.00001487 </v>
   <v>      -0.00002971      -0.00037243       0.00005926 </v>
   <v>       0.00010036      -0.00011881      -0.00010398 </v>
   <v>      -0.00002258      -0.00001374       0.00014539 </v>
   <v>       0.00024627      -0.00023551       0.00005715 </v>
   <v>      -0.00083169       0.00068350      -0.00056563 </v>
   <v>       0.00115757       0.00038276       0.00055044 </v>
   <v>      -0.00056727       0.00124960      -0.00117246 </v>
   <v>      -0.00004008       0.00050791      -0.00007860 </v>
   <v>      -0.00176590      -0.00006429       0.00025289 </v>
   <v>      -0.00130929       0.00021103      -0.00027752 </v>
   <v>       0.00046820       0.00038788       0.00003404 </v>
   <v>      -0.00047912       0.00089697      -0.00087646 </v>
   <v>      -0.00012734      -0.00016843       0.00064677 </v>
   <v>      -0.00058196      -0.00002332       0.00022074 </v>
   <v>      -0.00022450       0.00090475      -0.00032034 </v>
   <v>       0.00010241      -0.00145351       0.00091382 </v>
   <v>      -0.00004829       0.00007513      -0.00030586 </v>
   <v>      -0.00134116      -0.00018292       0.00075987 </v>
   <v>       0.00054992       0.00070318       0.00042345 </v>
   <v>       0.00023116      -0.00067938       0.00095955 </v>
   <v>      -0.00186663       0.00036910       0.00041270 </v>
   <v>       0.00014878       0.00065187       0.00053518 </v>
   <v>      -0.00102951      -0.00031770       0.00057225 </v>
   <v>       0.00064125      -0.00131414      -0.00057622 </v>
   <v>       0.00071074      -0.00009230       0.00056529 </v>
   <v>       0.00114063       0.00105552      -0.00061337 </v>
   <v>       0.00074963      -0.00050652       0.00010495 </v>
   <v>       0.00014076      -0.00004769       0.00015508 </v>
   <v>       0.00094351      -0.00046877      -0.00022527 </v>
   <v>       0.00029795      -0.00000111      -0.00063292 </v>
   <v>      -0.00121230      -0.00079189       0.00014858 </v>
   <v>       0.00077496      -0.00079866       0.00038257 </v>
   <v>       0.00097005      -0.00016346      -0.00038628 </v>
   <v>      -0.00018709       0.00013169      -0.00035116 </v>
   <v>       0.00026794       0.00061659      -0.00005398 </v>
   <v>       0.00037805      -0.00018534      -0.00060383 </v>
   <v>       0.00041756      -0.00052788      -0.00195858 </v>
   <v>      -0.00045499      -0.00018558       0.00016185 </v>
   <v>      -0.00058935       0.00000531       0.00006216 </v>
   <v>       0.00083766       0.00044599       0.00095511 </v>
   <v>      -0.00008161      -0.00081036       0.00010681 </v>
   <v>      -0.00140626       0.00026462      -0.00049333 </v>
   <v>       0.00013079       0.00078516       0.00054309 </v>
   <v>       0.00051951      -0.00082677      -0.00036743 </v>
   <v>      -0.00076412      -0.00115215      -0.00070265 </v>
   <v>      -0.00015835       0.00014725       0.00001581 </v>
   <v>       0.00022981      -0.00014464       0.00031565 </v>
   <v>       0.00027904      -0.00005715       0.00009014 </v>
   <v>       0.00004293       0.00003093       0.00010376 </v>
   <v>      -0.00009345       0.00003106      -0.00007881 </v>
   <v>      -0.00008033       0.00008574       0.00022282 </v>
   <v>      -0.00013451       0.00029533      -0.00007823 </v>
   <v>      -0.00007495      -0.00008470      -0.00008780 </v>
   <v>       0.00000084       0.00018441      -0.00014025 </v>
   <v>      -0.00013136      -0.00014817      -0.00024281 </v>
   <v>      -0.00007702      -0.00010621       0.00000958 </v>
   <v>      -0.00028804      -0.00012380      -0.00002182 </v>
   <v>      -0.00002332      -0.00019269       0.00029492 </v>
   <v>      -0.00002712      -0.00004812       0.00008415 </v>
   <v>      -0.00035900      -0.00022943      -0.00016262 </v>
   <v>      -0.00005815       0.00009967      -0.00021602 </v>
   <v>      -0.00018282      -0.00011066      -0.00013275 </v>
   <v>       0.00030544       0.00000459      -0.00008097 </v>
   <v>       0.00003430      -0.00000899      -0.00007955 </v>
   <v>      -0.00014262      -0.00008594      -0.00000926 </v>
   <v>       0.00023660       0.00023931       0.00019058 </v>
   <v>       0.00008932      -0.00013010      -0.00002150 </v>
   <v>       0.00006713       0.00016861       0.00005137 </v>
   <v>      -0.00015600      -0.00031915       0.00018527 </v>
   <v>      -0.00004621      -0.00012989      -0.00000189 </v>
   <v>       0.00004081       0.00017506       0.00000598 </v>
   <v>       0.00004382      -0.00010624      -0.00022031 </v>
   <v>      -0.00012759      -0.00013454       0.00001054 </v>
   <v>      -0.00007558      -0.00014367      -0.00015219 </v>
   <v>      -0.00027420       0.00007360       0.00029809 </v>
   <v>      -0.00006109       0.00007942      -0.00033986 </v>
   <v>       0.00004730       0.00028921      -0.00041151 </v>
   <v>       0.00009538       0.00023952       0.00015535 </v>
   <v>       0.00045615      -0.00025670       0.00004717 </v>
   <v>       0.00002343      -0.00021796       0.00000725 </v>
   <v>       0.00000965       0.00008762      -0.00011890 </v>
   <v>      -0.00005061      -0.00029076      -0.00026213 </v>
   <v>      -0.00005644       0.00029468      -0.00009116 </v>
   <v>       0.00014216       0.00016693      -0.00008051 </v>
   <v>      -0.00017239       0.00017197      -0.00006923 </v>
   <v>      -0.00016972       0.00011764       0.00009461 </v>
   <v>      -0.00002471      -0.00000258       0.00007511 </v>
   <v>       0.00025436      -0.00009964      -0.00003144 </v>
   <v>      -0.00011171      -0.00012172      -0.00003320 </v>
   <v>       0.00032170      -0.00007950       0.00036101 </v>
   <v>       0.00021157       0.00003740      -0.00013866 </v>
   <v>      -0.00005812       0.00009072       0.00019860 </v>
   <v>       0.00012674       0.00045744      -0.00008292 </v>
   <v>       0.00011277       0.00021031      -0.00024709 </v>
   <v>       0.00014991       0.00016236       0.00017406 </v>
   <v>       0.00016258      -0.00004379      -0.00015986 </v>
   <v>      -0.00010820       0.00006076       0.00018821 </v>
   <v>      -0.00008797       0.00019851      -0.00004984 </v>
   <v>       0.00019084      -0.00017036      -0.00008041 </v>
   <v>       0.00005903      -0.00003232       0.00004902 </v>
   <v>      -0.00014937      -0.00050784      -0.00003420 </v>
   <v>       0.00002278       0.00035642      -0.00009121 </v>
   <v>       0.00032158       0.00024734       0.00013683 </v>
   <v>      -0.00007340       0.00013669      -0.00001658 </v>
   <v>       0.00001812      -0.00012821       0.00021585 </v>
   <v>       0.00002885       0.00017567       0.00006450 </v>
   <v>       0.00034019      -0.00005604      -0.00008898 </v>
   <v>       0.00024717       0.00007992       0.00035700 </v>
   <v>      -0.00011389       0.00003722       0.00001288 </v>
   <v>      -0.00001720       0.00002205       0.00009880 </v>
   <v>       0.00015793      -0.00012727       0.00021018 </v>
   <v>      -0.00028215      -0.00004781       0.00008801 </v>
   <v>       0.00009535       0.00003720       0.00007601 </v>
   <v>      -0.00005328      -0.00040688      -0.00025736 </v>
   <v>       0.00002073       0.00016729      -0.00008903 </v>
   <v>      -0.00021044      -0.00003318       0.00000342 </v>
   <v>      -0.00020753       0.00005407       0.00015954 </v>
   <v>       0.00007961       0.00019979       0.00012240 </v>
   <v>       0.00008680       0.00013791       0.00007101 </v>
  </varray>
  <nose>
   <v>       3.00000000       0.00000000     300.00000000     300.00000000 </v>
  </nose>
 </structure>
 <calculation>
  <scstep>
   <time name="dav">    8.65    8.68</time>
   <time name="total">    8.87    8.90</time>
   <energy>
    <i name="alphaZ">    101.08303108 </i>
    <i name="ewald"> 103341.51171589 </i>
    <i name="hartreedc">-131009.87703302 </i>
    <i name="XCdc">   1833.83672314 </i>
    <i name="pawpsdc">  27520.17136640 </i>
    <i name="pawaedc"> -27121.54304893 </i>
    <i name="eentropy">     -0.00660540 </i>
    <i name="bandstr">  -4785.99960177 </i>
    <i name="atom">  34567.87672263 </i>
    <i name="e_fr_energy">   4447.05327002 </i>
    <i name="e_wo_entrp">   4447.05987542 </i>
    <i name="e_0_energy">   4447.05657272 </i>
   </energy>
  </scstep>
  <scstep>
   <time name="dav">   13.09   13.12</time>
   <time name="total">   13.13   13.16</time>
   <energy>
    <i name="e_fr_energy">   -346.92236513 </i>
    <i name="e_wo_entrp">   -346.92236513 </i>
    <i name="e_0_energy">   -346.92236513 </i>
   </energy>
  </scstep>
  <scstep>
   <time name="dav">    6.26    6.27</time>
   <time name="total">    6.30    6.31</time>
   <energy>
    <i name="e_fr_energy">  -1056.00265525 </i>
    <i name="e_wo_entrp">  -1056.00265525 </i>
    <i name="e_0_energy">  -1056.00265525 </i>
   </energy>
  </scstep>
  <scstep>
   <time name="dav">    7.69    7.71</time>
   <time name="total">    7.73    7.75</time>
   <energy>
    <i name="e_fr_energy">  -1081.42900736 </i>
    <i name="e_wo_entrp">  -1081.42900736 </i>
    <i name="e_0_energy">  -1081.42900736 </i>
   </energy>
  </scstep>
  <scstep>
   <time name="dav">    7.72    7.73</time>
   <time name="total">    7.89    7.91</time>
   <energy>
    <i name="e_fr_energy">  -1081.73343979 </i>
    <i name="e_wo_entrp">  -1081.73343979 </i>
    <i name="e_0_energy">  -1081.73343979 </i>
   </energy>
  </scstep>
  <scstep>
   <time name="diag">    0.76    0.76</time>
   <time name="diis">    3.95    3.97</time>
   <time name="orth">    0.09    0.09</time>
   <time name="total">    5.14    5.16</time>
   <energy>
    <i name="e_fr_energy">   -958.60596716 </i>
    <i name="e_wo_entrp">   -958.60596716 </i>
    <i name="e_0_energy">   -958.60596716 </i>
   </energy>
  </scstep>
  <scstep>
   <time name="diag">    0.76    0.76</time>
   <time name="diis">    3.96    3.99</time>
   <time name="orth">    0.09    0.09</time>
   <time name="total">    5.14    5.17</time>
   <energy>
    <i name="e_fr_energy">   -959.03099523 </i>
    <i name="e_wo_entrp">   -959.03099523 </i>
    <i name="e_0_energy">   -959.03099523 </i>
   </energy>
  </scstep>
  <scstep>
   <time name="diag">    0.76    0.76</time>
   <time name="diis">    4.17    4.19</time>
   <time name="orth">    0.09    0.09</time>
   <time name="total">    5.36    5.38</time>
   <energy>
    <i name="e_fr_energy">   -957.66159896 </i>
    <i name="e_wo_entrp">   -957.66159896 </i>
    <i name="e_0_energy">   -957.66159896 </i>
   </energy>
  </scstep>
  <scstep>
   <time name="diag">    0.76    0.76</time>
   <time name="diis">    4.05    4.07</time>
   <time name="orth">    0.09    0.09</time>
   <time name="total">    5.24    5.26</time>
   <energy>
    <i name="e_fr_energy">   -957.53387237 </i>
    <i name="e_wo_entrp">   -957.53387237 </i>
    <i name="e_0_energy">   -957.53387237 </i>
   </energy>
  </scstep>
  <scstep>
   <time name="diag">    0.75    0.75</time>
   <time name="diis">    3.91    3.93</time>
   <time name="orth">    0.09    0.09</time>
   <time name="total">    5.09    5.11</time>
   <energy>
    <i name="e_fr_energy">   -957.55674226 </i>
    <i name="e_wo_entrp">   -957.55674226 </i>
    <i name="e_0_energy">   -957.55674226 </i>
   </energy>
  </scstep>
  <scstep>
   <time name="diag">    0.76    0.76</time>
   <time name="diis">    3.98    4.01</time>
   <time name="orth">    0.08    0.08</time>
   <time name="total">    5.16    5.19</time>
   <energy>
    <i name="e_fr_energy">   -957.50374490 </i>
    <i name="e_wo_entrp">   -957.50374490 </i>
    <i name="e_0_energy">   -957.50374490 </i>
   </energy>
  </scstep>
  <scstep>
   <time name="diag">    0.76    0.76</time>
   <time name="diis">    3.96    3.97</time>
   <time name="orth">    0.09    0.09</time>
   <time name="total">    5.15    5.16</time>
   <energy>
    <i name="e_fr_energy">   -957.53829124 </i>
    <i name="e_wo_entrp">   -957.53829124 </i>
    <i name="e_0_energy">   -957.53829124 </i>
   </energy>
  </scstep>
  <scstep>
   <time name="diag">    0.76    0.76</time>
   <time name="diis">    3.88    3.90</time>
   <time name="orth">    0.08    0.08</time>
   <time name="total">    5.05    5.08</time>
   <energy>
    <i name="e_fr_energy">   -957.54660806 </i>
    <i name="e_wo_entrp">   -957.54660806 </i>
    <i name="e_0_energy">   -957.54660806 </i>
   </energy>
  </scstep>
  <scstep>
   <time name="diag">    0.76    0.76</time>
   <time name="diis">    4.34    4.36</time>
   <time name="orth">    0.09    0.09</time>
   <time name="total">    5.52    5.54</time>
   <energy>
    <i name="e_fr_energy">   -957.57265881 </i>
    <i name="e_wo_entrp">   -957.57265881 </i>
    <i name="e_0_energy">   -957.57265881 </i>
   </energy>
  </scstep>
  <scstep>
   <time name="diag">    0.76    0.76</time>
   <time name="diis">    4.01    4.03</time>
   <time name="orth">    0.09    0.09</time>
   <time name="total">    5.19    5.22</time>
   <energy>
    <i name="e_fr_energy">   -957.58430637 </i>
    <i name="e_wo_entrp">   -957.58430637 </i>
    <i name="e_0_energy">   -957.58430637 </i>
   </energy>
  </scstep>
  <scstep>
   <time name="diag">    0.75    0.75</time>
   <time name="diis">    3.89    3.91</time>
   <time name="orth">    0.09    0.09</time>
   <time name="total">    5.07    5.09</time>
   <energy>
    <i name="e_fr_energy">   -957.59330411 </i>
    <i name="e_wo_entrp">   -957.59330411 </i>
    <i name="e_0_energy">   -957.59330411 </i>
   </energy>
  </scstep>
  <scstep>
   <time name="diag">    0.76    0.76</time>
   <time name="diis">    3.68    3.70</time>
   <time name="orth">    0.09    0.09</time>
   <time name="total">    4.86    4.88</time>
   <energy>
    <i name="e_fr_energy">   -957.60087732 </i>
    <i name="e_wo_entrp">   -957.60087732 </i>
    <i name="e_0_energy">   -957.60087732 </i>
   </energy>
  </scstep>
  <scstep>
   <time name="diag">    0.75    0.75</time>
   <time name="diis">    4.07    4.10</time>
   <time name="orth">    0.09    0.09</time>
   <time name="total">    5.25    5.28</time>
   <energy>
    <i name="e_fr_energy">   -957.60522683 </i>
    <i name="e_wo_entrp">   -957.60522683 </i>
    <i name="e_0_energy">   -957.60522683 </i>
   </energy>
  </scstep>
  <scstep>
   <time name="diag">    0.75    0.75</time>
   <time name="diis">    3.15    3.16</time>
   <time name="orth">    0.09    0.09</time>
   <time name="total">    4.33    4.35</time>
   <energy>
    <i name="e_fr_energy">   -957.60665717 </i>
    <i name="e_wo_entrp">   -957.60665717 </i>
    <i name="e_0_energy">   -957.60665717 </i>
   </energy>
  </scstep>
  <scstep>
   <time name="diag">    0.76    0.76</time>
   <time name="diis">    3.22    3.24</time>
   <time name="orth">    0.09    0.09</time>
   <time name="total">    4.40    4.43</time>
   <energy>
    <i name="e_fr_energy">   -957.60749240 </i>
    <i name="e_wo_entrp">   -957.60749240 </i>
    <i name="e_0_energy">   -957.60749240 </i>
   </energy>
  </scstep>
  <scstep>
   <time name="diag">    0.75    0.75</time>
   <time name="diis">    2.83    2.85</time>
   <time name="orth">    0.09    0.09</time>
   <time name="total">    4.01    4.03</time>
   <energy>
    <i name="e_fr_energy">   -957.60780083 </i>
    <i name="e_wo_entrp">   -957.60780083 </i>
    <i name="e_0_energy">   -957.60780083 </i>
   </energy>
  </scstep>
  <scstep>
   <time name="diag">    0.75    0.76</time>
   <time name="diis">    2.76    2.77</time>
   <time name="orth">    0.08    0.08</time>
   <time name="total">    3.94    3.96</time>
   <energy>
    <i name="e_fr_energy">   -957.60795803 </i>
    <i name="e_wo_entrp">   -957.60795803 </i>
    <i name="e_0_energy">   -957.60795803 </i>
   </energy>
  </scstep>
  <scstep>
   <time name="diag">    0.75    0.75</time>
   <time name="diis">    2.84    2.86</time>
   <time name="orth">    0.09    0.09</time>
   <time name="total">    4.02    4.04</time>
   <energy>
    <i name="e_fr_energy">   -957.60809457 </i>
    <i name="e_wo_entrp">   -957.60809457 </i>
    <i name="e_0_energy">   -957.60809457 </i>
   </energy>
  </scstep>
  <scstep>
   <time name="diag">    0.76    0.76</time>
   <time name="diis">    2.36    2.38</time>
   <time name="orth">    0.10    0.10</time>
   <time name="total">    3.40    3.42</time>
   <energy>
    <i name="alphaZ">    101.08303108 </i>
    <i name="ewald"> 103341.51171589 </i>
    <i name="hartreedc">-133502.23905995 </i>
    <i name="XCdc">   1953.00280025 </i>
    <i name="pawpsdc">  81165.66847649 </i>
    <i name="pawaedc"> -80790.76161307 </i>
    <i name="eentropy">     -0.00000000 </i>
    <i name="bandstr">  -7793.75020347 </i>
    <i name="atom">  34567.87672263 </i>
    <i name="e_fr_energy">   -957.60813014 </i>
    <i name="e_wo_entrp">   -957.60813014 </i>
    <i name="e_0_energy">   -957.60813014 </i>
   </energy>
  </scstep>
  <structure>
   <crystal>
    <varray name="basis" >
     <v>      23.00000000       0.00000000       0.00000000 </v>
     <v>       0.00000000      23.00000000       0.00000000 </v>
     <v>       0.00000000       0.00000000      23.00000000 </v>
    </varray>
    <i name="volume">  12167.00000000 </i>
    <varray name="rec_basis" >
     <v>       0.04347826       0.00000000       0.00000000 </v>
     <v>       0.00000000       0.04347826       0.00000000 </v>
     <v>       0.00000000       0.00000000       0.04347826 </v>
    </varray>
   </crystal>
   <varray name="positions" >
    <v>       0.40130367       0.61023612       0.55112398 </v>
    <v>       0.53933346       0.61423662       0.55474046 </v>
    <v>       0.46573094       0.61105867       0.17232154 </v>
    <v>       0.39800805       0.41595973       0.54840613 </v>
    <v>       0.53488854       0.40820236       0.55615052 </v>
    <v>       0.46396727       0.40222774       0.18441744 </v>
    <v>       0.48271120       0.53776190       0.39350330 </v>
    <v>       0.45947928       0.50995343       0.26400711 </v>
    <v>       0.32323021       0.52771590       0.25579352 </v>
    <v>       0.26448235       0.54935198       0.37808800 </v>
    <v>       0.36545160       0.51191181       0.46151182 </v>
    <v>       0.47372090       0.67615120       0.39007353 </v>
    <v>       0.43338350       0.70649318       0.26415131 </v>
    <v>       0.26152701       0.68631733       0.40180319 </v>
    <v>       0.37225711       0.71356451       0.47137103 </v>
    <v>       0.39180330       0.27709892       0.54696072 </v>
    <v>       0.52755685       0.27448406       0.55288199 </v>
    <v>       0.57387681       0.16103513       0.50054205 </v>
    <v>       0.56290273       0.85453099       0.48108571 </v>
    <v>       0.57168415       0.71998743       0.47379633 </v>
    <v>       0.58505417       0.50809548       0.47980862 </v>
    <v>       0.36888680       0.58773972       0.68490739 </v>
    <v>       0.47304408       0.61412051       0.76703296 </v>
    <v>       0.36832542       0.45053944       0.67864539 </v>
    <v>       0.46883704       0.41360566       0.76164715 </v>
    <v>       0.42800227       0.51188636       0.84915357 </v>
    <v>       0.48069386       0.27755234       0.76725745 </v>
    <v>       0.57837092       0.58270741       0.68242809 </v>
    <v>       0.57422635       0.44658386       0.68238148 </v>
    <v>       0.57780646       0.24988484       0.67576397 </v>
    <v>       0.58039377       0.14058912       0.59684318 </v>
    <v>       0.32934804       0.62483695       0.23861384 </v>
    <v>       0.37062308       0.59455359       0.15565761 </v>
    <v>       0.26780769       0.47303937       0.19438988 </v>
    <v>       0.36870390       0.43143225       0.17456872 </v>
    <v>       0.34072371       0.70489393       0.29969954 </v>
    <v>       0.55616892       0.92973589       0.54296121 </v>
    <v>       0.47202701       0.30489065       0.18635237 </v>
    <v>       0.48341072       0.15761665       0.46199477 </v>
    <v>       0.31501766       0.23736182       0.50093868 </v>
    <v>       0.47399399       0.84046809       0.44172444 </v>
    <v>       0.46391185       0.79984509       0.26872851 </v>
    <v>       0.38104255       0.79940347       0.51878162 </v>
    <v>       0.18541429       0.49859552       0.40652098 </v>
    <v>       0.63877126       0.15870963       0.42765389 </v>
    <v>       0.62981901       0.87361108       0.41131102 </v>
    <v>       0.65998832       0.66965532       0.45254085 </v>
    <v>       0.51797723       0.63913284       0.09470451 </v>
    <v>       0.51241555       0.43913451       0.10783208 </v>
    <v>       0.73117610       0.60733344       0.41926212 </v>
    <v>       0.74780451       0.65617051       0.46826349 </v>
    <v>       0.28921952       0.60451385       0.73992299 </v>
    <v>       0.29335816       0.42350153       0.73635216 </v>
    <v>       0.46337656       0.70417764       0.80547664 </v>
    <v>       0.38630610       0.26264603       0.64492473 </v>
    <v>       0.63439928       0.16988504       0.68271507 </v>
    <v>       0.64247158       0.65097339       0.71186314 </v>
    <v>       0.66041447       0.42498269       0.72601986 </v>
    <v>       0.63641647       0.33010548       0.68516990 </v>
    <v>       0.27597121       0.72375822       0.35046474 </v>
    <v>       0.20014805       0.69384590       0.42006920 </v>
    <v>       0.36353698       0.51644688       0.84322984 </v>
    <v>       0.44628059       0.50926111       0.91090833 </v>
    <v>       0.47464421       0.24571875       0.82291082 </v>
    <v>       0.43088098       0.26580691       0.72714199 </v>
    <v>       0.68704242       0.58729463       0.53639137 </v>
    <v>       0.76297465       0.57818926       0.52709441 </v>
    <v>       0.71312550       0.48572067       0.51526682 </v>
    <v>       0.75028863       0.50620432       0.45161565 </v>
    <v>       0.65925493       0.46532870       0.42038004 </v>
    <v>       0.65411239       0.54016564       0.40707930 </v>
    <v>       0.72093518       0.57775122       0.50398497 </v>
    <v>       0.71211962       0.51683764       0.47881473 </v>
    <v>       0.65665158       0.50784810       0.44244127 </v>
    <v>       0.71878672       0.62377266       0.45878077 </v>
    <v>       0.56960331       0.12227357       0.55977316 </v>
    <v>       0.47071707       0.59740605       0.54812518 </v>
    <v>       0.52182977       0.61462107       0.12877026 </v>
    <v>       0.40750082       0.59736024       0.13407111 </v>
    <v>       0.46783870       0.42694463       0.54359054 </v>
    <v>       0.51534671       0.40690227       0.13490871 </v>
    <v>       0.40224820       0.41751353       0.15225609 </v>
    <v>       0.31720488       0.58848685       0.21858970 </v>
    <v>       0.30611215       0.47350289       0.21202322 </v>
    <v>       0.45827953       0.67268464       0.20789423 </v>
    <v>       0.48112935       0.56005961       0.21918388 </v>
    <v>       0.47523667       0.44592116       0.23987569 </v>
    <v>       0.53330306       0.50674491       0.43127429 </v>
    <v>       0.49185012       0.51950735       0.32613396 </v>
    <v>       0.38955740       0.51567284       0.27580832 </v>
    <v>       0.28117808       0.52780855       0.31270834 </v>
    <v>       0.30463221       0.51581847       0.42580079 </v>
    <v>       0.41918732       0.51640742       0.41607713 </v>
    <v>       0.52148960       0.71564970       0.42276562 </v>
    <v>       0.47306041       0.69031866       0.32082838 </v>
    <v>       0.36498569       0.68427052       0.27165499 </v>
    <v>       0.30310262       0.70596931       0.45639289 </v>
    <v>       0.40845612       0.69077230       0.41497502 </v>
    <v>       0.48809717       0.60794199       0.40123263 </v>
    <v>       0.27407432       0.61940122       0.38150790 </v>
    <v>       0.57897184       0.44955590       0.52010594 </v>
    <v>       0.55256494       0.67777970       0.52815617 </v>
    <v>       0.36631002       0.44952526       0.49486958 </v>
    <v>       0.36768355       0.56475658       0.50878073 </v>
[...]
   <v>       0.43716299       0.50153748       0.91255485 </v>
   <v>       0.46479030       0.24901899       0.82507222 </v>
   <v>       0.43427441       0.26768509       0.72392278 </v>
   <v>       0.68159020       0.58890873       0.53358763 </v>
   <v>       0.75768939       0.58052879       0.52871238 </v>
   <v>       0.71802679       0.48333327       0.51127752 </v>
   <v>       0.74846949       0.51260559       0.45122817 </v>
   <v>       0.65789533       0.46411913       0.41319725 </v>
   <v>       0.65350464       0.53956988       0.40818996 </v>
   <v>       0.71672112       0.57726062       0.50376685 </v>
   <v>       0.71216085       0.51560663       0.47806346 </v>
   <v>       0.65670774       0.50447018       0.43933305 </v>
   <v>       0.71785027       0.62392463       0.45761494 </v>
   <v>       0.57014614       0.12149835       0.55929836 </v>
   <v>       0.46943900       0.59562112       0.54760469 </v>
   <v>       0.52113484       0.61527931       0.12734794 </v>
   <v>       0.40546782       0.59679409       0.13105112 </v>
   <v>       0.46963431       0.42689482       0.54239332 </v>
   <v>       0.51652057       0.40725271       0.13681393 </v>
   <v>       0.40106494       0.41604104       0.15123201 </v>
   <v>       0.31868744       0.58929583       0.21821468 </v>
   <v>       0.30769893       0.47404827       0.21032529 </v>
   <v>       0.45947683       0.67073195       0.20888611 </v>
   <v>       0.47956671       0.55784487       0.21872058 </v>
   <v>       0.47504081       0.44667904       0.23880406 </v>
   <v>       0.53657310       0.50651736       0.42948843 </v>
   <v>       0.49310559       0.51829902       0.32531637 </v>
   <v>       0.38995563       0.51611192       0.27560620 </v>
   <v>       0.28321320       0.52591256       0.31485708 </v>
   <v>       0.30592186       0.51292517       0.42481086 </v>
   <v>       0.42057952       0.51820537       0.41567953 </v>
   <v>       0.52087407       0.71518168       0.42401512 </v>
   <v>       0.47092289       0.68816210       0.32153106 </v>
   <v>       0.36577470       0.68603212       0.27230324 </v>
   <v>       0.30279828       0.70561708       0.45669129 </v>
   <v>       0.40805608       0.69139649       0.41278390 </v>
   <v>       0.48971770       0.60765295       0.40079017 </v>
   <v>       0.27122577       0.61894318       0.38300201 </v>
   <v>       0.57707544       0.45138514       0.52142194 </v>
   <v>       0.55448068       0.67630666       0.52971725 </v>
   <v>       0.36745361       0.45184480       0.49364399 </v>
   <v>       0.36888702       0.56468329       0.50851011 </v>
   <v>       0.38820485       0.67766523       0.52999809 </v>
   <v>       0.19851445       0.53926023       0.39095222 </v>
   <v>       0.46104461       0.26266111       0.53490994 </v>
   <v>       0.52311487       0.14164171       0.45246058 </v>
   <v>       0.50617270       0.86230473       0.43478333 </v>
   <v>       0.56783106       0.23184585       0.51400828 </v>
   <v>       0.55097271       0.88633236       0.54388797 </v>
   <v>       0.35443050       0.24641891       0.49556358 </v>
   <v>       0.46512721       0.33400715       0.21228509 </v>
   <v>       0.38276198       0.34801928       0.54386104 </v>
   <v>       0.54333309       0.34100893       0.54044232 </v>
   <v>       0.56911988       0.78385528       0.49883701 </v>
   <v>       0.38734960       0.78244220       0.48408874 </v>
   <v>       0.43364461       0.77838163       0.25621463 </v>
   <v>       0.63480047       0.14792406       0.46456824 </v>
   <v>       0.62228365       0.88329357       0.45272681 </v>
   <v>       0.63385804       0.70823358       0.44677846 </v>
   <v>       0.30258810       0.60825412       0.70065061 </v>
   <v>       0.37439199       0.60232509       0.61562842 </v>
   <v>       0.55569977       0.61427642       0.62338830 </v>
   <v>       0.52669254       0.58906184       0.73097072 </v>
   <v>       0.41730063       0.62219498       0.72400647 </v>
   <v>       0.30151404       0.42631869       0.69683044 </v>
   <v>       0.37502454       0.44683007       0.60866413 </v>
   <v>       0.54899523       0.41343660       0.62671683 </v>
   <v>       0.52735123       0.44366217       0.73745381 </v>
   <v>       0.41822329       0.41190340       0.71408336 </v>
   <v>       0.37835507       0.51780915       0.69367658 </v>
   <v>       0.59132716       0.51465153       0.67318159 </v>
   <v>       0.49502711       0.67763236       0.79173522 </v>
   <v>       0.45890671       0.56927486       0.81952483 </v>
   <v>       0.44938820       0.45334552       0.81793671 </v>
   <v>       0.36742040       0.25252634       0.60840660 </v>
   <v>       0.53309751       0.26412788       0.62267631 </v>
   <v>       0.54194000       0.26075623       0.73761064 </v>
   <v>       0.59830036       0.18058605       0.66726664 </v>
   <v>       0.47952075       0.34751298       0.78405301 </v>
   <v>       0.64125483       0.61135244       0.70378331 </v>
   <v>       0.63285994       0.40826834       0.69606901 </v>
   <v>       0.63899846       0.28854520       0.67646939 </v>
   <v>       0.57712011       0.56428396       0.52358642 </v>
  </varray>
  <varray name="selective"  type="logical" >
   <v type="logical" >  T  T  T </v>
   <v type="logical" >  T  T  T </v>
   <v type="logical" >  T  T  T </v>
   <v type="logical" >  T  T  T </v>
   <v type="logical" >  T  T  T </v>
   <v type="logical" >  T  T  T </v>
   <v type="logical" >  T  T  T </v>
   <v type="logical" >  T  T  T </v>
   <v type="logical" >  T  T  T </v>
   <v type="logical" >  T  T  T </v>
   <v type="logical" >  T  T  T </v>
   <v type="logical" >  T  T  T </v>
   <v type="logical" >  T  T  T </v>
   <v type="logical" >  T  T  T </v>
   <v type="logical" >  T  T  T </v>
   <v type="logical" >  T  T  T </v>
   <v type="logical" >  T  T  T </v>
   <v type="logical" >  T  T  T </v>
   <v type="logical" >  T  T  T </v>
   <v type="logical" >  T  T  T </v>
   <v type="logical" >  T  T  T </v>
   <v type="logical" >  T  T  T </v>
   <v type="logical" >  T  T  T </v>
   <v type="logical" >  T  T  T </v>
   <v type="logical" >  T  T  T </v>
   <v type="logical" >  T  T  T </v>
   <v type="logical" >  T  T  T </v>
   <v type="logical" >  T  T  T </v>
   <v type="logical" >  T  T  T </v>
   <v type="logical" >  T  T  T </v>
   <v type="logical" >  T  T  T </v>
   <v type="logical" >  T  T  T </v>
   <v type="logical" >  T  T  T </v>
   <v type="logical" >  T  T  T </v>
   <v type="logical" >  T  T  T </v>
   <v type="logical" >  T  T  T </v>
   <v type="logical" >  T  T  T </v>
   <v type="logical" >  T  T  T </v>
   <v type="logical" >  T  T  T </v>
   <v type="logical" >  T  T  T </v>
   <v type="logical" >  T  T  T </v>
   <v type="logical" >  T  T  T </v>
   <v type="logical" >  T  T  T </v>
   <v type="logical" >  T  T  T </v>
   <v type="logical" >  T  T  T </v>
   <v type="logical" >  T  T  T </v>
   <v type="logical" >  T  T  T </v>
   <v type="logical" >  T  T  T </v>
   <v type="logical" >  T  T  T </v>
   <v type="logical" >  T  T  T </v>
   <v type="logical" >  T  T  T </v>
   <v type="logical" >  T  T  T </v>
   <v type="logical" >  T  T  T </v>
   <v type="logical" >  T  T  T </v>
   <v type="logical" >  T  T  T </v>
   <v type="logical" >  T  T  T </v>
   <v type="logical" >  T  T  T </v>
   <v type="logical" >  T  T  T </v>
   <v type="logical" >  T  T  T </v>
   <v type="logical" >  T  T  T </v>
   <v type="logical" >  T  T  T </v>
   <v type="logical" >  T  T  T </v>
   <v type="logical" >  T  T  T </v>
   <v type="logical" >  T  T  T </v>
   <v type="logical" >  T  T  T </v>
   <v type="logical" >  T  T  T </v>
   <v type="logical" >  T  T  T </v>
   <v type="logical" >  T  T  T </v>
   <v type="logical" >  T  T  T </v>
   <v type="logical" >  T  T  T </v>
   <v type="logical" >  T  T  T </v>
   <v type="logical" >  T  T  T </v>
   <v type="logical" >  T  T  T </v>
   <v type="logical" >  T  T  T </v>
   <v type="logical" >  T  T  T </v>
   <v type="logical" >  T  T  T </v>
   <v type="logical" >  T  T  T </v>
   <v type="logical" >  T  T  T </v>
   <v type="logical" >  T  T  T </v>
   <v type="logical" >  T  T  T </v>
   <v type="logical" >  T  T  T </v>
   <v type="logical" >  T  T  T </v>
   <v type="logical" >  T  T  T </v>
   <v type="logical" >  T  T  T </v>
   <v type="logical" >  T  T  T </v>
   <v type="logical" >  T  T  T </v>
   <v type="logical" >  T  T  T </v>
   <v type="logical" >  T  T  T </v>
   <v type="logical" >  T  T  T </v>
   <v type="logical" >  T  T  T </v>
   <v type="logical" >  T  T  T </v>
   <v type="logical" >  T  T  T </v>
   <v type="logical" >  T  T  T </v>
   <v type="logical" >  T  T  T </v>
   <v type="logical" >  T  T  T </v>
   <v type="logical" >  T  T  T </v>
   <v type="logical" >  T  T  T </v>
   <v type="logical" >  T  T  T </v>
   <v type="logical" >  T  T  T </v>
   <v type="logical" >  T  T  T </v>
   <v type="logical" >  T  T  T </v>
   <v type="logical" >  T  T  T </v>
   <v type="logical" >  T  T  T </v>
   <v type="logical" >  T  T  T </v>
   <v type="logical" >  T  T  T </v>
   <v type="logical" >  T  T  T </v>
   <v type="logical" >  T  T  T </v>
   <v type="logical" >  T  T  T </v>
   <v type="logical" >  T  T  T </v>
   <v type="logical" >  T  T  T </v>
   <v type="logical" >  T  T  T </v>
   <v type="logical" >  T  T  T </v>
   <v type="logical" >  T  T  T </v>
   <v type="logical" >  T  T  T </v>
   <v type="logical" >  T  T  T </v>
   <v type="logical" >  T  T  T </v>
   <v type="logical" >  T  T  T </v>
   <v type="logical" >  T  T  T </v>
   <v type="logical" >  T  T  T </v>
   <v type="logical" >  T  T  T </v>
   <v type="logical" >  T  T  T </v>
   <v type="logical" >  T  T  T </v>
   <v type="logical" >  T  T  T </v>
   <v type="logical" >  T  T  T </v>
   <v type="logical" >  T  T  T </v>
   <v type="logical" >  T  T  T </v>
   <v type="logical" >  T  T  T </v>
   <v type="logical" >  T  T  T </v>
   <v type="logical" >  T  T  T </v>
   <v type="logical" >  T  T  T </v>
   <v type="logical" >  T  T  T </v>
   <v type="logical" >  T  T  T </v>
   <v type="logical" >  T  T  T </v>
   <v type="logical" >  T  T  T </v>
   <v type="logical" >  T  T  T </v>
   <v type="logical" >  T  T  T </v>
   <v type="logical" >  T  T  T </v>
   <v type="logical" >  T  T  T </v>
   <v type="logical" >  T  T  T </v>
   <v type="logical" >  T  T  T </v>
   <v type="logical" >  T  T  T </v>
   <v type="logical" >  T  T  T </v>
   <v type="logical" >  T  T  T </v>
   <v type="logical" >  T  T  T </v>
   <v type="logical" >  T  T  T </v>
  </varray>
  <varray name="velocities" >
   <v>      -0.00003214       0.00004295      -0.00004093 </v>
   <v>      -0.00004524      -0.00008594       0.00006134 </v>
   <v>      -0.00005412      -0.00012109      -0.00002584 </v>
   <v>       0.00007482       0.00012168      -0.00003067 </v>
   <v>       0.00003708       0.00001134       0.00008790 </v>
   <v>      -0.00005235      -0.00005252      -0.00000880 </v>
   <v>       0.00008467      -0.00001486      -0.00011616 </v>
   <v>       0.00004731      -0.00006452       0.00007305 </v>
   <v>       0.00003481      -0.00006661       0.00002717 </v>
   <v>       0.00014102      -0.00003783       0.00002439 </v>
   <v>       0.00010229       0.00021306      -0.00009580 </v>
   <v>      -0.00000180      -0.00004171       0.00002176 </v>
   <v>       0.00012250      -0.00000405      -0.00002998 </v>
   <v>      -0.00006459       0.00006170      -0.00000911 </v>
   <v>       0.00000605       0.00005908      -0.00003558 </v>
   <v>       0.00006626       0.00008283      -0.00002377 </v>
   <v>      -0.00000395      -0.00008092       0.00000262 </v>
   <v>      -0.00002496       0.00001118      -0.00009472 </v>
   <v>      -0.00010701      -0.00008504      -0.00004013 </v>
   <v>      -0.00004817      -0.00011447       0.00007061 </v>
   <v>       0.00005396       0.00002143       0.00006903 </v>
   <v>      -0.00002740       0.00007268      -0.00007258 </v>
   <v>       0.00002291      -0.00000166       0.00001929 </v>
   <v>      -0.00004866      -0.00007861       0.00005965 </v>
   <v>      -0.00001630       0.00001565       0.00017223 </v>
   <v>      -0.00008880       0.00007143       0.00012000 </v>
   <v>       0.00002085      -0.00000107       0.00017245 </v>
   <v>      -0.00003506       0.00000501       0.00005805 </v>
   <v>      -0.00009204      -0.00002082       0.00007835 </v>
   <v>       0.00002154       0.00000808       0.00001663 </v>
   <v>       0.00002325      -0.00097570      -0.00053334 </v>
   <v>      -0.00004250      -0.00026646      -0.00023882 </v>
   <v>       0.00035013      -0.00017148      -0.00041776 </v>
   <v>       0.00077713       0.00006441       0.00011506 </v>
   <v>      -0.00004769       0.00018902      -0.00004481 </v>
   <v>      -0.00027740       0.00050967       0.00137664 </v>
   <v>      -0.00014535       0.00079993       0.00015978 </v>
   <v>      -0.00043140      -0.00033724      -0.00032948 </v>
   <v>       0.00000560      -0.00056980      -0.00012376 </v>
   <v>       0.00049353      -0.00087777       0.00071472 </v>
   <v>       0.00004192      -0.00017575       0.00001409 </v>
   <v>      -0.00055664      -0.00047124      -0.00038357 </v>
   <v>       0.00045358      -0.00003402       0.00109942 </v>
   <v>      -0.00045638       0.00003639      -0.00051197 </v>
   <v>      -0.00035218       0.00030604       0.00051169 </v>
   <v>      -0.00009042       0.00038185      -0.00025270 </v>
   <v>       0.00015692       0.00010417      -0.00007649 </v>
   <v>       0.00016890       0.00092804       0.00065425 </v>
   <v>       0.00049776      -0.00007886       0.00065287 </v>
   <v>      -0.00006021      -0.00003720      -0.00023069 </v>
   <v>       0.00026554      -0.00030851       0.00000900 </v>
   <v>       0.00009951       0.00083229       0.00067001 </v>
   <v>       0.00037821      -0.00117627       0.00061816 </v>
   <v>       0.00060922      -0.00030634      -0.00020051 </v>
   <v>      -0.00013953       0.00021209       0.00079042 </v>
   <v>       0.00099715       0.00050878      -0.00059335 </v>
   <v>      -0.00041635       0.00029122       0.00026554 </v>
   <v>       0.00008712       0.00010858      -0.00069632 </v>
   <v>       0.00004492       0.00025311       0.00074964 </v>
   <v>       0.00084696       0.00016442      -0.00064356 </v>
   <v>       0.00067682       0.00049106      -0.00062893 </v>
   <v>       0.00004024       0.00040411      -0.00025580 </v>
   <v>      -0.00037817      -0.00003457      -0.00026388 </v>
   <v>      -0.00022475      -0.00011455       0.00002435 </v>
   <v>       0.00018392      -0.00015708      -0.00035842 </v>
   <v>      -0.00076107      -0.00041615      -0.00015934 </v>
   <v>      -0.00062422      -0.00036424       0.00030001 </v>
   <v>       0.00025097      -0.00061274       0.00010530 </v>
   <v>       0.00077669       0.00036734      -0.00056738 </v>
   <v>       0.00013181      -0.00002607      -0.00007718 </v>
   <v>      -0.00006478       0.00036532      -0.00026054 </v>
   <v>      -0.00036631       0.00009908      -0.00005891 </v>
   <v>      -0.00008165      -0.00010023      -0.00019580 </v>
   <v>      -0.00000507      -0.00027533      -0.00012831 </v>
   <v>      -0.00015744      -0.00000608      -0.00009183 </v>
   <v>       0.00011129       0.00000068       0.00002183 </v>
   <v>       0.00001639      -0.00015566      -0.00004038 </v>
   <v>      -0.00010278       0.00006288      -0.00009142 </v>
   <v>      -0.00006614      -0.00002182      -0.00014681 </v>
   <v>      -0.00005292       0.00003425      -0.00011517 </v>
   <v>       0.00013634       0.00003978       0.00016934 </v>
   <v>      -0.00004637      -0.00015360      -0.00007810 </v>
   <v>       0.00016029       0.00000421       0.00006032 </v>
   <v>       0.00012127       0.00003831      -0.00017373 </v>
   <v>       0.00012136      -0.00010990       0.00013588 </v>
   <v>      -0.00012251      -0.00014493      -0.00008530 </v>
   <v>      -0.00001283       0.00007999      -0.00005021 </v>
   <v>       0.00014248       0.00005421      -0.00029874 </v>
   <v>       0.00020727      -0.00009566       0.00007174 </v>
   <v>       0.00018157       0.00001770       0.00002298 </v>
   <v>       0.00024767      -0.00020761       0.00004834 </v>
   <v>       0.00009773      -0.00019963      -0.00013897 </v>
   <v>       0.00010090       0.00016659      -0.00005350 </v>
   <v>      -0.00013070      -0.00008964       0.00005932 </v>
   <v>      -0.00014818      -0.00019120      -0.00003168 </v>
   <v>       0.00017130       0.00015557       0.00000086 </v>
   <v>      -0.00000748      -0.00004399       0.00004516 </v>
   <v>      -0.00011219       0.00009868      -0.00012947 </v>
   <v>       0.00014453      -0.00001619      -0.00007272 </v>
   <v>      -0.00027590       0.00003421       0.00016590 </v>
   <v>      -0.00016145       0.00012269       0.00017294 </v>
   <v>       0.00019889      -0.00007996       0.00008152 </v>
   <v>       0.00018711       0.00016642      -0.00002589 </v>
   <v>       0.00009949       0.00009617       0.00001830 </v>
   <v>       0.00009279       0.00007514      -0.00001090 </v>
   <v>       0.00004087       0.00023377       0.00001317 </v>
   <v>      -0.00004700      -0.00004198       0.00003854 </v>
   <v>       0.00009247      -0.00020138      -0.00008134 </v>
   <v>      -0.00025827      -0.00002000       0.00007248 </v>
   <v>      -0.00011693       0.00001432      -0.00034475 </v>
   <v>      -0.00014312      -0.00023563      -0.00001168 </v>
   <v>      -0.00016688       0.00010304       0.00008051 </v>
   <v>      -0.00030363      -0.00014064      -0.00009595 </v>
   <v>       0.00006573       0.00015599      -0.00017357 </v>
   <v>      -0.00023771      -0.00005284       0.00027116 </v>
   <v>      -0.00011907       0.00010496       0.00005446 </v>
   <v>      -0.00020540       0.00004676       0.00021749 </v>
   <v>       0.00034262       0.00006797       0.00018009 </v>
   <v>      -0.00016473      -0.00000672      -0.00035932 </v>
   <v>      -0.00000691       0.00002579       0.00009466 </v>
   <v>       0.00000978       0.00029867      -0.00001499 </v>
   <v>      -0.00004178      -0.00003087       0.00003292 </v>
   <v>      -0.00032202      -0.00004516      -0.00023274 </v>
   <v>      -0.00003326      -0.00006892       0.00008816 </v>
   <v>      -0.00001489       0.00004153      -0.00013484 </v>
   <v>       0.00006909      -0.00001836      -0.00012105 </v>
   <v>      -0.00005649      -0.00012186       0.00007998 </v>
   <v>       0.00009080       0.00024460      -0.00007283 </v>
   <v>       0.00012545      -0.00017709      -0.00000697 </v>
   <v>       0.00003362       0.00008538       0.00009131 </v>
   <v>      -0.00008070       0.00002920       0.00009469 </v>
   <v>      -0.00003382       0.00010755      -0.00030647 </v>
   <v>      -0.00000345      -0.00015488       0.00023398 </v>
   <v>       0.00010784       0.00001699      -0.00006606 </v>
   <v>       0.00006537      -0.00010398       0.00008519 </v>
   <v>       0.00005247       0.00023919       0.00005842 </v>
   <v>      -0.00011907       0.00021232      -0.00012692 </v>
   <v>       0.00010021      -0.00012021       0.00000858 </v>
   <v>       0.00021155       0.00028160      -0.00000299 </v>
   <v>       0.00007590      -0.00003910       0.00013266 </v>
   <v>      -0.00018662      -0.00003827       0.00018345 </v>
   <v>      -0.00002402       0.00015168      -0.00008945 </v>
   <v>      -0.00001181      -0.00001910      -0.00014284 </v>
   <v>       0.00007964      -0.00007249       0.00000102 </v>
   <v>      -0.00004176      -0.00014572       0.00014621 </v>
  </varray>
  <nose>
   <v>       3.00000000       0.00000000     300.00000000     300.00000000 </v>
  </nose>
 </structure>
</modeling>
