unknown system                          
           1
    11.636000    0.000000    0.000000
     0.000000    7.905000    0.000000
     0.000000    0.000000   11.636000
   O    La   Ti   Li
    54    10    18     6
Direct configuration=     1
   0.00302512  0.26007733  0.20097687
   0.16519835  0.00016540  0.20261604
   0.15933634  0.27306483  0.02166786
   0.00340554  0.74096152  0.19906245
   0.18077238  0.49988626  0.18199187
   0.16228983  0.72330687  0.02153935
   0.33528362  0.23937374  0.18934665
   0.50368513  0.00044192  0.18648155
   0.50693635  0.28808482  0.02272170
   0.33540358  0.75980338  0.19249940
   0.47805922  0.50000491  0.19150273
   0.50449252  0.71062491  0.02235366
   0.84500068  0.00115837  0.18610778
   0.84528982  0.25175662  0.02167688
   0.66988606  0.70650345  0.18505209
   0.85117908  0.50136677  0.17922372
   0.84474751  0.75096398  0.02169573
   0.00429817  0.24866026  0.53115494
   0.17692005  0.00117364  0.52020437
   0.16785851  0.29670658  0.35652887
   0.00404681  0.75492623  0.53011868
   0.15943969  0.50109894  0.54565707
   0.16751027  0.70436008  0.35652394
   0.33638023  0.27665770  0.51565672
   0.48687183  0.00140535  0.51965303
   0.50864096  0.28211673  0.35457103
   0.33616153  0.72679828  0.51726856
   0.50287112  0.50132502  0.53987316
   0.50873142  0.71947485  0.35473688
   0.66861980  0.28114559  0.52759700
   0.84099263  0.00197875  0.52868178
   0.83133943  0.27456101  0.35567592
   0.66901234  0.72296991  0.52704741
   0.85149175  0.50226835  0.51401952
   0.83152867  0.72931416  0.35502603
   0.00214162  0.27336397  0.84471896
   0.20062793  0.00066536  0.86180231
   0.19399886  0.23875345  0.68996277
   0.00395568  0.72547433  0.84748455
   0.16797078  0.49667930  0.83967402
   0.19040390  0.76130290  0.69035806
   0.33746484  0.27555872  0.87399787
   0.48368848  0.00074859  0.86886942
   0.48105388  0.24006956  0.68987382
   0.33651784  0.71351946  0.86542579
   0.51802201  0.49945771  0.83628725
   0.48402410  0.76099262  0.68995622
   0.66804930  0.24403483  0.85675922
   0.83525563  0.00105873  0.85846365
   0.83206437  0.29435971  0.68840695
   0.66753752  0.75609874  0.85741342
   0.82511373  0.50104058  0.87154645
   0.83297710  0.71113195  0.68869341
   0.67046856  0.29585949  0.18583118
   0.99799702  0.50250352  0.01880695
   0.33433866  0.50220299  0.02522163
   0.67014350  0.50171809  0.01733111
   0.99637884  0.50066930  0.35090364
   0.33882020  0.50093903  0.34875679
   0.66968220  0.50099460  0.35521199
   0.99883514  0.50379866  0.68164006
   0.33419615  0.00138464  0.67528546
   0.33451951  0.50381897  0.68437756
   0.66875357  0.50435217  0.68322136
   0.16778372  0.24326287  0.18379435
   0.16793564  0.75887660  0.18460480
   0.50568847  0.24029542  0.18340024
   0.50489894  0.76227479  0.18404530
   0.83230293  0.24226967  0.18689278
   0.83176599  0.76038856  0.18709053
   0.16891376  0.75694150  0.51349891
   0.50489903  0.24035303  0.51356241
   0.50521059  0.76342772  0.51408685
   0.83208762  0.23848395  0.51822335
   0.83235518  0.76576719  0.51759864
   0.16465020  0.24821559  0.85189408
   0.16774180  0.76597773  0.85457561
   0.50203523  0.25025952  0.85178398
   0.49993008  0.75977146  0.85436814
   0.83618302  0.24221885  0.84708718
   0.83714114  0.76159632  0.84785519
   0.16913652  0.24678131  0.51334495
   0.33816826  0.04462137  0.95805240
   0.00370321  0.00136224  0.24550618
   0.33494997  0.00063307  0.24047898
   0.88182718  0.00175173  0.02000089
   0.00641009  0.00207145  0.56545716
   0.66396218  0.00093782  0.89172070
Direct configuration=     2
   0.00302716  0.26007684  0.20098500
   0.16520021  0.00016639  0.20262502
   0.15933572  0.27306888  0.02167440
   0.00340645  0.74095961  0.19906973
   0.18077211  0.49988816  0.18200022
   0.16228968  0.72330425  0.02154755
   0.33528380  0.23937095  0.18935302
   0.50368546  0.00044195  0.18649224
   0.50694015  0.28808214  0.02272931
   0.33540376  0.75980549  0.19250364
   0.47805931  0.50000698  0.19151142
   0.50449624  0.71062681  0.02235962
   0.84500074  0.00115775  0.18611740
   0.84528819  0.25175631  0.02168493
   0.66988616  0.70650185  0.18506063
   0.85117871  0.50136706  0.17923058
   0.84474572  0.75096184  0.02170345
   0.00429831  0.24865803  0.53116192
   0.17692039  0.00117495  0.52021431
   0.16785971  0.29670644  0.35653556
   0.00404725  0.75492959  0.53012567
   0.15943915  0.50109949  0.54566777
   0.16751075  0.70436302  0.35653213
   0.33637889  0.27666065  0.51566725
   0.48686989  0.00140736  0.51966204
   0.50863965  0.28211746  0.35457951
   0.33616100  0.72679614  0.51727711
   0.50287410  0.50132481  0.53988055
   0.50873171  0.71947639  0.35474658
   0.66862042  0.28114608  0.52760344
   0.84099349  0.00197957  0.52868923
   0.83134067  0.27455827  0.35568329
   0.66901344  0.72296900  0.52705625
   0.85149261  0.50226652  0.51402594
   0.83152810  0.72931295  0.35503478
   0.00214125  0.27336488  0.84473055
   0.20062822  0.00066371  0.86180846
   0.19400030  0.23875419  0.68997054
   0.00395500  0.72547319  0.84749502
   0.16797159  0.49667726  0.83968339
   0.19040494  0.76130234  0.69036828
   0.33746358  0.27555829  0.87400606
   0.48368937  0.00074862  0.86887912
   0.48105442  0.24007102  0.68988121
   0.33651748  0.71352263  0.86543592
   0.51802244  0.49945674  0.83629726
   0.48402408  0.76099371  0.68996294
   0.66804990  0.24403530  0.85676565
   0.83525611  0.00105826  0.85847143
   0.83206606  0.29435915  0.68841438
   0.66753819  0.75609728  0.85741927
   0.82511283  0.50104218  0.87155567
   0.83297886  0.71113239  0.68870090
   0.67046927  0.29585973  0.18584108
   0.99799691  0.50250464  0.01881463
   0.33433938  0.50220478  0.02523068
   0.67014458  0.50171969  0.01734019
   0.99637844  0.50066935  0.35091080
   0.33882055  0.50093942  0.34876536
   0.66968291  0.50099437  0.35522251
   0.99883584  0.50379946  0.68164722
   0.33419577  0.00138501  0.67529385
   0.33451969  0.50382024  0.68438512
   0.66875421  0.50435099  0.68323191
   0.16778488  0.24326427  0.18380181
   0.16793542  0.75887721  0.18461111
   0.50568898  0.24029501  0.18340971
   0.50489692  0.76227443  0.18405252
   0.83230378  0.24226966  0.18690249
   0.83176495  0.76038782  0.18709860
   0.16891417  0.75694000  0.51350849
   0.50489750  0.24035859  0.51357033
   0.50521151  0.76342919  0.51409485
   0.83208864  0.23848438  0.51823139
   0.83235584  0.76576846  0.51760730
   0.16465095  0.24821476  0.85190046
   0.16774124  0.76597751  0.85458371
   0.50203408  0.25026216  0.85178945
   0.49992879  0.75977233  0.85437587
   0.83618211  0.24221955  0.84709498
   0.83714067  0.76159662  0.84786432
   0.16913596  0.24678339  0.51335184
   0.33816853  0.04462279  0.95805897
   0.00370600  0.00136082  0.24551295
   0.33494827  0.00063405  0.24048626
   0.88182406  0.00175278  0.02000746
   0.00640841  0.00207339  0.56546266
   0.66396170  0.00093925  0.89172536
Direct configuration=     3
   0.00302906  0.26007657  0.20099302
   0.16520207  0.00016740  0.20263388
   0.15933518  0.27307299  0.02168071
   0.00340720  0.74095755  0.19907700
   0.18077192  0.49989004  0.18200841
   0.16228957  0.72330148  0.02155545
   0.33528425  0.23936830  0.18935936
   0.50368563  0.00044221  0.18650271
   0.50694380  0.28807958  0.02273664
   0.33540417  0.75980745  0.19250778
   0.47805909  0.50000903  0.19152011
   0.50449983  0.71062858  0.02236541
   0.84500092  0.00115699  0.18612689
   0.84528672  0.25175598  0.02169271
   0.66988621  0.70650018  0.18506903
   0.85117846  0.50136733  0.17923740
   0.84474402  0.75095974  0.02171094
   0.00429823  0.24865595  0.53116871
   0.17692075  0.00117629  0.52022415
   0.16786092  0.29670655  0.35654168
   0.00404747  0.75493283  0.53013264
   0.15943843  0.50110010  0.54567826
   0.16751118  0.70436579  0.35653980
   0.33637758  0.27666364  0.51567739
   0.48686791  0.00140940  0.51967092
   0.50863827  0.28211834  0.35458737
   0.33616059  0.72679392  0.51728552
   0.50287701  0.50132462  0.53988778
   0.50873177  0.71947771  0.35475571
   0.66862125  0.28114655  0.52760975
   0.84099451  0.00198041  0.52869654
   0.83134191  0.27455557  0.35569033
   0.66901479  0.72296801  0.52706489
   0.85149361  0.50226468  0.51403232
   0.83152767  0.72931178  0.35504327
   0.00214090  0.27336599  0.84474197
   0.20062855  0.00066219  0.86181458
   0.19400168  0.23875485  0.68997785
   0.00395415  0.72547179  0.84750537
   0.16797229  0.49667563  0.83969272
   0.19040597  0.76130166  0.69037788
   0.33746208  0.27555789  0.87401422
   0.48369023  0.00074870  0.86888872
   0.48105502  0.24007253  0.68988819
   0.33651685  0.71352571  0.86544615
   0.51802296  0.49945591  0.83630712
   0.48402404  0.76099475  0.68996934
   0.66805040  0.24403592  0.85677200
   0.83525656  0.00105797  0.85847928
   0.83206770  0.29435876  0.68842138
   0.66753895  0.75609564  0.85742512
   0.82511202  0.50104373  0.87156491
   0.83298066  0.71113250  0.68870803
   0.67046984  0.29585998  0.18585089
   0.99799676  0.50250578  0.01882226
   0.33434014  0.50220655  0.02523965
   0.67014564  0.50172129  0.01734926
   0.99637804  0.50066942  0.35091791
   0.33882089  0.50093983  0.34877388
   0.66968362  0.50099415  0.35523299
   0.99883652  0.50380025  0.68165436
   0.33419538  0.00138537  0.67530221
   0.33451989  0.50382149  0.68439266
   0.66875486  0.50434982  0.68324241
   0.16778591  0.24326554  0.18380930
   0.16793505  0.75887794  0.18461748
   0.50568963  0.24029460  0.18341924
   0.50489500  0.76227408  0.18405987
   0.83230457  0.24226973  0.18691230
   0.83176390  0.76038704  0.18710680
   0.16891449  0.75693856  0.51351813
   0.50489598  0.24036399  0.51357831
   0.50521239  0.76343072  0.51410292
   0.83208962  0.23848486  0.51823953
   0.83235645  0.76576974  0.51761601
   0.16465173  0.24821381  0.85190679
   0.16774068  0.76597730  0.85459173
   0.50203296  0.25026475  0.85179479
   0.49992751  0.75977313  0.85438361
   0.83618124  0.24222021  0.84710272
   0.83714015  0.76159691  0.84787359
   0.16913537  0.24678541  0.51335868
   0.33816887  0.04462456  0.95806535
   0.00370896  0.00135908  0.24551966
   0.33494653  0.00063497  0.24049330
   0.88182086  0.00175412  0.02001354
   0.00640667  0.00207510  0.56546824
   0.66396145  0.00094085  0.89173002
Direct configuration=     4
   0.00303090  0.26007635  0.20100101
   0.16520396  0.00016840  0.20264277
   0.15933476  0.27307715  0.02168711
   0.00340786  0.74095548  0.19908433
   0.18077181  0.49989189  0.18201661
   0.16228953  0.72329862  0.02156334
   0.33528495  0.23936578  0.18936574
   0.50368559  0.00044268  0.18651310
   0.50694736  0.28807693  0.02274398
   0.33540480  0.75980929  0.19251186
   0.47805863  0.50001108  0.19152884
   0.50450337  0.71063042  0.02237124
   0.84500124  0.00115604  0.18613637
   0.84528533  0.25175554  0.02170056
   0.66988625  0.70649858  0.18507738
   0.85117825  0.50136758  0.17924421
   0.84474235  0.75095778  0.02171854
   0.00429807  0.24865399  0.53117537
   0.17692110  0.00117768  0.52023404
   0.16786219  0.29670672  0.35654768
   0.00404760  0.75493602  0.53013967
   0.15943757  0.50110076  0.54568861
   0.16751160  0.70436860  0.35654740
   0.33637626  0.27666666  0.51568728
   0.48686586  0.00141149  0.51967982
   0.50863676  0.28211931  0.35459505
   0.33616027  0.72679170  0.51729393
   0.50287985  0.50132444  0.53989479
   0.50873155  0.71947890  0.35476470
   0.66862227  0.28114691  0.52761598
   0.84099568  0.00198125  0.52870379
   0.83134319  0.27455279  0.35569730
   0.66901638  0.72296703  0.52707344
   0.85149468  0.50226282  0.51403868
   0.83152741  0.72931073  0.35505174
   0.00214061  0.27336718  0.84475339
   0.20062895  0.00066069  0.86182068
   0.19400301  0.23875542  0.68998509
   0.00395312  0.72547025  0.84751575
   0.16797296  0.49667422  0.83970208
   0.19040703  0.76130092  0.69038725
   0.33746050  0.27555734  0.87402237
   0.48369105  0.00074875  0.86889832
   0.48105571  0.24007410  0.68989516
   0.33651609  0.71352891  0.86545656
   0.51802351  0.49945512  0.83631698
   0.48402397  0.76099579  0.68997582
   0.66805076  0.24403659  0.85677836
   0.83525696  0.00105780  0.85848735
   0.83206933  0.29435839  0.68842832
   0.66753974  0.75609389  0.85743105
   0.82511127  0.50104528  0.87157419
   0.83298251  0.71113246  0.68871516
   0.67047031  0.29586010  0.18586073
   0.99799656  0.50250692  0.01882987
   0.33434093  0.50220830  0.02524858
   0.67014668  0.50172288  0.01735832
   0.99637763  0.50066951  0.35092502
   0.33882122  0.50094024  0.34878239
   0.66968434  0.50099393  0.35524345
   0.99883720  0.50380102  0.68166152
   0.33419498  0.00138570  0.67531056
   0.33452011  0.50382274  0.68440023
   0.66875550  0.50434867  0.68325290
   0.16778680  0.24326671  0.18381681
   0.16793452  0.75887879  0.18462387
   0.50569040  0.24029424  0.18342876
   0.50489315  0.76227375  0.18406731
   0.83230531  0.24226986  0.18692217
   0.83176284  0.76038625  0.18711508
   0.16891470  0.75693719  0.51352778
   0.50489447  0.24036926  0.51358629
   0.50521325  0.76343229  0.51411101
   0.83209055  0.23848542  0.51824774
   0.83235700  0.76577102  0.51762466
   0.16465251  0.24821282  0.85191303
   0.16774012  0.76597712  0.85459965
   0.50203187  0.25026732  0.85179999
   0.49992622  0.75977390  0.85439135
   0.83618041  0.24222080  0.84711039
   0.83713956  0.76159718  0.84788296
   0.16913473  0.24678739  0.51336540
   0.33816932  0.04462667  0.95807168
   0.00371208  0.00135700  0.24552639
   0.33494473  0.00063583  0.24050019
   0.88181766  0.00175573  0.02001919
   0.00640492  0.00207655  0.56547397
   0.66396136  0.00094258  0.89173477
Direct configuration=     5
   0.00303270  0.26007618  0.20100898
   0.16520588  0.00016933  0.20265162
   0.15933445  0.27308117  0.02169355
   0.00340850  0.74095344  0.19909173
   0.18077174  0.49989374  0.18202481
   0.16228955  0.72329589  0.02157117
   0.33528586  0.23936326  0.18937216
   0.50368547  0.00044324  0.18652341
   0.50695086  0.28807406  0.02275128
   0.33540565  0.75981115  0.19251586
   0.47805798  0.50001318  0.19153765
   0.50450687  0.71063247  0.02237712
   0.84500160  0.00115489  0.18614595
   0.84528401  0.25175494  0.02170841
   0.66988628  0.70649716  0.18508578
   0.85117809  0.50136783  0.17925110
   0.84474070  0.75095599  0.02172619
   0.00429787  0.24865206  0.53118192
   0.17692149  0.00117909  0.52024398
   0.16786350  0.29670686  0.35655368
   0.00404764  0.75493925  0.53014676
   0.15943654  0.50110146  0.54569888
   0.16751198  0.70437159  0.35655502
   0.33637497  0.27666956  0.51569698
   0.48686383  0.00141361  0.51968871
   0.50863518  0.28212017  0.35460264
   0.33616009  0.72678960  0.51730238
   0.50288267  0.50132428  0.53990165
   0.50873114  0.71948021  0.35477360
   0.66862343  0.28114701  0.52762218
   0.84099691  0.00198203  0.52871095
   0.83134445  0.27454980  0.35570423
   0.66901817  0.72296624  0.52708190
   0.85149581  0.50226099  0.51404506
   0.83152725  0.72930994  0.35506026
   0.00214042  0.27336829  0.84476480
   0.20062933  0.00065912  0.86182680
   0.19400425  0.23875575  0.68999239
   0.00395197  0.72546872  0.84752618
   0.16797352  0.49667294  0.83971152
   0.19040807  0.76130025  0.69039650
   0.33745889  0.27555652  0.87403056
   0.48369184  0.00074873  0.86890786
   0.48105654  0.24007559  0.68990226
   0.33651522  0.71353239  0.86546722
   0.51802409  0.49945427  0.83632685
   0.48402392  0.76099694  0.68998242
   0.66805091  0.24403731  0.85678467
   0.83525738  0.00105777  0.85849547
   0.83207093  0.29435786  0.68843534
   0.66754053  0.75609207  0.85743703
   0.82511062  0.50104676  0.87158348
   0.83298441  0.71113241  0.68872242
   0.67047071  0.29586000  0.18587070
   0.99799632  0.50250808  0.01883752
   0.33434176  0.50221004  0.02525752
   0.67014774  0.50172448  0.01736745
   0.99637722  0.50066962  0.35093217
   0.33882154  0.50094066  0.34879094
   0.66968509  0.50099372  0.35525393
   0.99883790  0.50380177  0.68166872
   0.33419457  0.00138599  0.67531896
   0.33452035  0.50382398  0.68440788
   0.66875613  0.50434754  0.68326343
   0.16778755  0.24326779  0.18382432
   0.16793382  0.75887974  0.18463028
   0.50569129  0.24029394  0.18343825
   0.50489138  0.76227342  0.18407483
   0.83230598  0.24227007  0.18693207
   0.83176176  0.76038545  0.18712344
   0.16891479  0.75693588  0.51353741
   0.50489298  0.24037442  0.51359425
   0.50521409  0.76343389  0.51411908
   0.83209143  0.23848606  0.51825597
   0.83235751  0.76577231  0.51763324
   0.16465327  0.24821186  0.85191918
   0.16773956  0.76597698  0.85460746
   0.50203079  0.25026989  0.85180506
   0.49992492  0.75977463  0.85439908
   0.83617961  0.24222137  0.84711798
   0.83713892  0.76159741  0.84789242
   0.16913404  0.24678934  0.51337199
   0.33816984  0.04462908  0.95807795
   0.00371536  0.00135465  0.24553312
   0.33494288  0.00063658  0.24050693
   0.88181448  0.00175763  0.02002445
   0.00640322  0.00207775  0.56547984
   0.66396137  0.00094445  0.89173958
Direct configuration=     6
   0.00303441  0.26007600  0.20101695
   0.16520783  0.00017022  0.20266043
   0.15933425  0.27308505  0.02170000
   0.00340906  0.74095148  0.19909921
   0.18077176  0.49989558  0.18203300
   0.16228961  0.72329326  0.02157889
   0.33528703  0.23936077  0.18937860
   0.50368519  0.00044393  0.18653362
   0.50695431  0.28807101  0.02275851
   0.33540675  0.75981304  0.19251979
   0.47805712  0.50001529  0.19154654
   0.50451034  0.71063472  0.02238302
   0.84500205  0.00115354  0.18615556
   0.84528278  0.25175416  0.02171621
   0.66988625  0.70649592  0.18509424
   0.85117799  0.50136806  0.17925807
   0.84473908  0.75095442  0.02173385
   0.00429757  0.24865015  0.53118839
   0.17692190  0.00118052  0.52025397
   0.16786488  0.29670697  0.35655961
   0.00404753  0.75494251  0.53015394
   0.15943535  0.50110222  0.54570906
   0.16751237  0.70437475  0.35656258
   0.33637375  0.27667235  0.51570647
   0.48686178  0.00141576  0.51969761
   0.50863354  0.28212097  0.35461005
   0.33616006  0.72678764  0.51731084
   0.50288548  0.50132413  0.53990835
   0.50873054  0.71948157  0.35478232
   0.66862475  0.28114688  0.52762836
   0.84099825  0.00198275  0.52871803
   0.83134568  0.27454662  0.35571111
   0.66902016  0.72296562  0.52709029
   0.85149698  0.50225918  0.51405148
   0.83152717  0.72930940  0.35506877
   0.00214028  0.27336934  0.84477619
   0.20062974  0.00065759  0.86183296
   0.19400540  0.23875582  0.68999965
   0.00395070  0.72546718  0.84753666
   0.16797396  0.49667192  0.83972102
   0.19040910  0.76129965  0.69040549
   0.33745725  0.27555543  0.87403879
   0.48369262  0.00074870  0.86891736
   0.48105749  0.24007701  0.68990936
   0.33651423  0.71353610  0.86547813
   0.51802471  0.49945344  0.83633674
   0.48402387  0.76099820  0.68998908
   0.66805089  0.24403804  0.85679093
   0.83525776  0.00105791  0.85850370
   0.83207252  0.29435724  0.68844233
   0.66754134  0.75609022  0.85744305
   0.82511007  0.50104816  0.87159278
   0.83298637  0.71113229  0.68872967
   0.67047099  0.29585969  0.18588081
   0.99799607  0.50250924  0.01884512
   0.33434262  0.50221177  0.02526638
   0.67014876  0.50172608  0.01737658
   0.99637682  0.50066976  0.35093932
   0.33882182  0.50094110  0.34879953
   0.66968583  0.50099351  0.35526442
   0.99883859  0.50380251  0.68167599
   0.33419415  0.00138627  0.67532737
   0.33452061  0.50382520  0.68441558
   0.66875676  0.50434641  0.68327398
   0.16778816  0.24326875  0.18383182
   0.16793297  0.75888082  0.18463672
   0.50569232  0.24029366  0.18344773
   0.50488971  0.76227313  0.18408245
   0.83230659  0.24227031  0.18694204
   0.83176067  0.76038469  0.18713188
   0.16891477  0.75693468  0.51354704
   0.50489152  0.24037941  0.51360221
   0.50521491  0.76343558  0.51412717
   0.83209224  0.23848678  0.51826424
   0.83235797  0.76577364  0.51764177
   0.16465398  0.24821088  0.85192528
   0.16773899  0.76597688  0.85461519
   0.50202976  0.25027242  0.85181003
   0.49992362  0.75977536  0.85440682
   0.83617885  0.24222189  0.84712550
   0.83713823  0.76159764  0.84790199
   0.16913329  0.24679118  0.51337846
   0.33817043  0.04463180  0.95808412
   0.00371878  0.00135202  0.24553982
   0.33494100  0.00063724  0.24051349
   0.88181128  0.00175980  0.02002933
   0.00640152  0.00207869  0.56548584
   0.66396153  0.00094646  0.89174447
Direct configuration=     7
   0.00303603  0.26007603  0.20102500
   0.16520980  0.00017105  0.20266929
   0.15933415  0.27308896  0.02170660
   0.00340952  0.74094937  0.19910684
   0.18077189  0.49989743  0.18204121
   0.16228971  0.72329059  0.02158661
   0.33528843  0.23935842  0.18938514
   0.50368480  0.00044475  0.18654387
   0.50695769  0.28806795  0.02276582
   0.33540807  0.75981483  0.19252370
   0.47805596  0.50001747  0.19155554
   0.50451378  0.71063698  0.02238905
   0.84500260  0.00115198  0.18616531
   0.84528163  0.25175338  0.02172408
   0.66988621  0.70649467  0.18510280
   0.85117801  0.50136828  0.17926511
   0.84473750  0.75095288  0.02174163
   0.00429721  0.24864840  0.53119479
   0.17692237  0.00118198  0.52026412
   0.16786628  0.29670728  0.35656554
   0.00404732  0.75494568  0.53016126
   0.15943396  0.50110304  0.54571924
   0.16751272  0.70437788  0.35657017
   0.33637258  0.27667521  0.51571585
   0.48685970  0.00141797  0.51970660
   0.50863182  0.28212183  0.35461739
   0.33616019  0.72678561  0.51731946
   0.50288829  0.50132400  0.53991502
   0.50872974  0.71948289  0.35479095
   0.66862621  0.28114667  0.52763457
   0.84099968  0.00198344  0.52872508
   0.83134692  0.27454343  0.35571799
   0.66902233  0.72296501  0.52709866
   0.85149830  0.50225741  0.51405789
   0.83152722  0.72930891  0.35507734
   0.00214022  0.27337042  0.84478762
   0.20063019  0.00065605  0.86183916
   0.19400658  0.23875573  0.69000690
   0.00394931  0.72546553  0.84754725
   0.16797435  0.49667119  0.83973058
   0.19041024  0.76129905  0.69041427
   0.33745555  0.27555419  0.87404709
   0.48369334  0.00074862  0.86892684
   0.48105849  0.24007844  0.68991646
   0.33651310  0.71353991  0.86548932
   0.51802536  0.49945269  0.83634660
   0.48402376  0.76099948  0.68999582
   0.66805070  0.24403887  0.85679716
   0.83525815  0.00105819  0.85851209
   0.83207407  0.29435669  0.68844933
   0.66754215  0.75608823  0.85744916
   0.82510956  0.50104949  0.87160222
   0.83298839  0.71113195  0.68873700
   0.67047119  0.29585936  0.18589111
   0.99799580  0.50251042  0.01885272
   0.33434351  0.50221349  0.02527520
   0.67014976  0.50172769  0.01738575
   0.99637644  0.50066993  0.35094648
   0.33882209  0.50094155  0.34880815
   0.66968658  0.50099331  0.35527491
   0.99883927  0.50380323  0.68168330
   0.33419372  0.00138653  0.67533580
   0.33452090  0.50382641  0.68442333
   0.66875740  0.50434531  0.68328453
   0.16778864  0.24326957  0.18383932
   0.16793196  0.75888203  0.18464319
   0.50569349  0.24029337  0.18345719
   0.50488822  0.76227287  0.18409017
   0.83230714  0.24227056  0.18695205
   0.83175957  0.76038400  0.18714042
   0.16891465  0.75693358  0.51355665
   0.50489009  0.24038420  0.51361017
   0.50521572  0.76343737  0.51413528
   0.83209298  0.23848753  0.51827258
   0.83235837  0.76577502  0.51765025
   0.16465466  0.24820986  0.85193133
   0.16773840  0.76597685  0.85462285
   0.50202875  0.25027487  0.85181492
   0.49992232  0.75977610  0.85441458
   0.83617814  0.24222235  0.84713296
   0.83713749  0.76159787  0.84791165
   0.16913250  0.24679290  0.51338481
   0.33817107  0.04463481  0.95809017
   0.00372231  0.00134914  0.24554649
   0.33493911  0.00063780  0.24051985
   0.88180806  0.00176224  0.02003385
   0.00639983  0.00207936  0.56549196
   0.66396185  0.00094858  0.89174941
Direct configuration=     8
   0.00303751  0.26007617  0.20103308
   0.16521178  0.00017185  0.20267816
   0.15933417  0.27309286  0.02171332
   0.00340987  0.74094725  0.19911459
   0.18077212  0.49989925  0.18204949
   0.16228986  0.72328786  0.02159428
   0.33529009  0.23935620  0.18939175
   0.50368429  0.00044573  0.18655405
   0.50696099  0.28806486  0.02277321
   0.33540961  0.75981654  0.19252758
   0.47805456  0.50001964  0.19156463
   0.50451716  0.71063923  0.02239522
   0.84500327  0.00115027  0.18617510
   0.84528056  0.25175247  0.02173200
   0.66988611  0.70649340  0.18511142
   0.85117811  0.50136846  0.17927226
   0.84473596  0.75095152  0.02174948
   0.00429677  0.24864677  0.53120110
   0.17692283  0.00118344  0.52027428
   0.16786774  0.29670775  0.35657138
   0.00404701  0.75494878  0.53016868
   0.15943240  0.50110392  0.54572933
   0.16751305  0.70438098  0.35657769
   0.33637149  0.27667814  0.51572499
   0.48685762  0.00142022  0.51971554
   0.50863000  0.28212279  0.35462454
   0.33616046  0.72678356  0.51732810
   0.50289101  0.50132388  0.53992155
   0.50872871  0.71948411  0.35479938
   0.66862779  0.28114636  0.52764077
   0.84100119  0.00198412  0.52873204
   0.83134818  0.27454017  0.35572485
   0.66902464  0.72296441  0.52710698
   0.85149971  0.50225565  0.51406431
   0.83152742  0.72930854  0.35508591
   0.00214021  0.27337162  0.84479901
   0.20063070  0.00065456  0.86184539
   0.19400771  0.23875553  0.69001398
   0.00394783  0.72546370  0.84755787
   0.16797468  0.49667084  0.83974012
   0.19041136  0.76129838  0.69042270
   0.33745378  0.27555283  0.87405546
   0.48369402  0.00074855  0.86893628
   0.48105959  0.24007991  0.68992341
   0.33651184  0.71354374  0.86550073
   0.51802603  0.49945208  0.83635644
   0.48402365  0.76100073  0.69000255
   0.66805038  0.24403976  0.85680337
   0.83525848  0.00105861  0.85852064
   0.83207559  0.29435624  0.68845617
   0.66754296  0.75608616  0.85745534
   0.82510912  0.50105075  0.87161171
   0.83299046  0.71113137  0.68874426
   0.67047127  0.29585901  0.18590155
   0.99799548  0.50251161  0.01886032
   0.33434445  0.50221519  0.02528403
   0.67015076  0.50172928  0.01739496
   0.99637603  0.50067012  0.35095368
   0.33882237  0.50094203  0.34881678
   0.66968735  0.50099311  0.35528544
   0.99883992  0.50380395  0.68169066
   0.33419328  0.00138678  0.67534425
   0.33452121  0.50382762  0.68443113
   0.66875805  0.50434421  0.68329508
   0.16778899  0.24327030  0.18384682
   0.16793080  0.75888334  0.18464971
   0.50569478  0.24029311  0.18346662
   0.50488690  0.76227259  0.18409802
   0.83230762  0.24227088  0.18696211
   0.83175846  0.76038330  0.18714904
   0.16891443  0.75693258  0.51356625
   0.50488869  0.24038883  0.51361811
   0.50521652  0.76343923  0.51414341
   0.83209366  0.23848837  0.51828097
   0.83235873  0.76577641  0.51765871
   0.16465529  0.24820883  0.85193736
   0.16773781  0.76597683  0.85463045
   0.50202780  0.25027727  0.85181975
   0.49992105  0.75977683  0.85442237
   0.83617747  0.24222279  0.84714040
   0.83713668  0.76159805  0.84792142
   0.16913166  0.24679450  0.51339108
   0.33817182  0.04463813  0.95809618
   0.00372592  0.00134600  0.24555313
   0.33493720  0.00063829  0.24052605
   0.88180480  0.00176489  0.02003806
   0.00639822  0.00207978  0.56549822
   0.66396231  0.00095079  0.89175441
Direct configuration=     9
   0.00303892  0.26007641  0.20104113
   0.16521376  0.00017254  0.20268696
   0.15933431  0.27309663  0.02172017
   0.00341021  0.74094514  0.19912239
   0.18077244  0.49990104  0.18205777
   0.16229005  0.72328520  0.02160190
   0.33529189  0.23935415  0.18939840
   0.50368370  0.00044677  0.18656414
   0.50696417  0.28806166  0.02278066
   0.33541130  0.75981816  0.19253140
   0.47805290  0.50002181  0.19157375
   0.50452048  0.71064158  0.02240152
   0.84500396  0.00114839  0.18618495
   0.84527956  0.25175146  0.02174001
   0.66988602  0.70649225  0.18512009
   0.85117832  0.50136860  0.17927949
   0.84473443  0.75095035  0.02175745
   0.00429638  0.24864529  0.53120730
   0.17692336  0.00118489  0.52028447
   0.16786925  0.29670823  0.35657737
   0.00404670  0.75495180  0.53017618
   0.15943069  0.50110484  0.54573930
   0.16751338  0.70438418  0.35658534
   0.33637043  0.27668106  0.51573391
   0.48685555  0.00142247  0.51972448
   0.50862810  0.28212371  0.35463169
   0.33616085  0.72678154  0.51733678
   0.50289364  0.50132375  0.53992799
   0.50872748  0.71948535  0.35480775
   0.66862946  0.28114586  0.52764697
   0.84100272  0.00198474  0.52873891
   0.83134945  0.27453680  0.35573172
   0.66902705  0.72296393  0.52711523
   0.85150125  0.50225395  0.51407074
   0.83152775  0.72930837  0.35509449
   0.00214032  0.27337277  0.84481032
   0.20063119  0.00065298  0.86185164
   0.19400875  0.23875518  0.69002112
   0.00394634  0.72546183  0.84756852
   0.16797497  0.49667068  0.83974964
   0.19041249  0.76129769  0.69043098
   0.33745210  0.27555134  0.87406384
   0.48369466  0.00074837  0.86894562
   0.48106078  0.24008136  0.68993045
   0.33651056  0.71354767  0.86551234
   0.51802669  0.49945150  0.83636624
   0.48402352  0.76100199  0.69000948
   0.66804985  0.24404074  0.85680950
   0.83525882  0.00105916  0.85852921
   0.83207709  0.29435574  0.68846315
   0.66754370  0.75608400  0.85746155
   0.82510874  0.50105188  0.87162123
   0.83299258  0.71113068  0.68875171
   0.67047132  0.29585851  0.18591212
   0.99799512  0.50251280  0.01886792
   0.33434541  0.50221687  0.02529282
   0.67015174  0.50173087  0.01740419
   0.99637563  0.50067033  0.35096087
   0.33882261  0.50094252  0.34882543
   0.66968812  0.50099292  0.35529594
   0.99884059  0.50380464  0.68169805
   0.33419282  0.00138699  0.67535271
   0.33452152  0.50382881  0.68443898
   0.66875870  0.50434314  0.68330565
   0.16778920  0.24327096  0.18385428
   0.16792949  0.75888473  0.18465627
   0.50569617  0.24029290  0.18347600
   0.50488574  0.76227230  0.18410597
   0.83230805  0.24227122  0.18697217
   0.83175733  0.76038263  0.18715770
   0.16891410  0.75693165  0.51357577
   0.50488730  0.24039332  0.51362597
   0.50521729  0.76344114  0.51415154