unknown system                          
           1
    11.636000    0.000000    0.000000
     0.000000    7.905000    0.000000
     0.000000    0.000000   11.636000
   O    La   Ti   Li
    54    10    18     6
Direct configuration=     1
   0.00153017  0.26083250  0.18580545
   0.16516957  0.00149631  0.18940879
   0.15977181  0.27995159  0.01092586
   0.00197130  0.74308944  0.18443080
   0.18047244  0.50132795  0.17282943
   0.16260927  0.71955986  0.01065907
   0.33526099  0.23983702  0.17711460
   0.50386840  0.00166556  0.17952331
   0.51091403  0.28337088  0.01102619
   0.33532972  0.76193217  0.18064173
   0.47560840  0.50093217  0.17705087
   0.50773663  0.71715054  0.01116983
   0.84014543  0.00229381  0.17557846
   0.83455807  0.25159082  0.00939989
   0.66904362  0.70436403  0.17763264
   0.85123709  0.50246825  0.16706238
   0.83482306  0.75344706  0.00956382
   0.00439056  0.25035613  0.51813401
   0.17772341  0.00214903  0.50842202
   0.16646655  0.29601355  0.34436173
   0.00404981  0.75483212  0.51778337
   0.15847960  0.50208917  0.53342200
   0.16594841  0.70751993  0.34452876
   0.33549223  0.28146321  0.50317996
   0.48530151  0.00240799  0.50981089
   0.50764669  0.28514354  0.34424936
   0.33533032  0.72384356  0.50456175
   0.50644357  0.50209169  0.52817813
   0.50781564  0.71827065  0.34442432
   0.66844413  0.27590613  0.51907703
   0.84092843  0.00275802  0.52199594
   0.83163902  0.27412704  0.34503909
   0.66880026  0.72941543  0.51839208
   0.84814425  0.50298983  0.50088051
   0.83181711  0.73132810  0.34454044
   0.00172505  0.27855001  0.83791603
   0.19878086  0.00164406  0.85235775
   0.19207245  0.23868279  0.67909313
   0.00328134  0.72271087  0.83980243
   0.16948381  0.49792310  0.82579463
   0.18888704  0.76355784  0.67952963
   0.33654306  0.27414164  0.86472900
   0.48204156  0.00175942  0.84891079
   0.47627970  0.24452080  0.67824945
   0.33584073  0.71763348  0.85621906
   0.51538253  0.50058922  0.82803896
   0.47963532  0.75913516  0.67791876
   0.66680032  0.24440546  0.83001011
   0.83336540  0.00199210  0.83938144
   0.83628871  0.29794409  0.67710714
   0.66618746  0.75737342  0.83258751
   0.82184196  0.50198927  0.86120407
   0.83644768  0.70904170  0.67753855
   0.66947227  0.30057369  0.17849155
   0.99905220  0.50272597  0.00996568
   0.33473155  0.50309140  0.01410794
   0.67154013  0.50321808  0.01073710
   0.99656216  0.50181975  0.34169118
   0.33835167  0.50210181  0.33791001
   0.66956222  0.50220400  0.34926650
   0.00085510  0.50448191  0.67137092
   0.33473529  0.00240181  0.66697567
   0.33525951  0.50485945  0.67385288
   0.66973207  0.50485479  0.67617295
   0.16809276  0.24456222  0.17289624
   0.16836135  0.75974946  0.17360139
   0.50611233  0.24149302  0.17420376
   0.50557568  0.76394779  0.17575809
   0.83147715  0.24390850  0.17943927
   0.83138229  0.76100595  0.17951820
   0.16946869  0.75839372  0.50216493
   0.50439226  0.24187846  0.50448132
   0.50481272  0.76407776  0.50550747
   0.83241837  0.23924230  0.51033311
   0.83276181  0.76649451  0.50988219
   0.16577202  0.24947380  0.84153106
   0.16843498  0.76645743  0.84409787
   0.50318934  0.25122354  0.84307068
   0.50112146  0.76054141  0.84614943
   0.83775073  0.24440034  0.83851453
   0.83885505  0.76103655  0.83937389
   0.16964346  0.24730116  0.50189922
   0.33844354  0.04150785  0.94543551
   0.00259550  0.00215722  0.22145220
   0.33456827  0.00201781  0.22919892
   0.84048085  0.00301510  0.00850659
   0.00704793  0.00290799  0.55216164
   0.66638628  0.00101598  0.80095583
Direct configuration=     2
   0.00152995  0.26083208  0.18580557
   0.16516954  0.00149603  0.18940862
   0.15977190  0.27995150  0.01092587
   0.00197125  0.74308965  0.18443086
   0.18047232  0.50132791  0.17282952
   0.16260943  0.71956027  0.01065904
   0.33526097  0.23983672  0.17711424
   0.50386843  0.00166580  0.17952316
   0.51091386  0.28337087  0.01102642
   0.33532957  0.76193227  0.18064159
   0.47560881  0.50093198  0.17705096
   0.50773660  0.71715085  0.01116975
   0.84014521  0.00229398  0.17557848
   0.83455796  0.25159045  0.00940016
   0.66904357  0.70436379  0.17763253
   0.85123701  0.50246831  0.16706229
   0.83482308  0.75344696  0.00956410
   0.00439060  0.25035638  0.51813398
   0.17772334  0.00214902  0.50842221
   0.16646656  0.29601366  0.34436165
   0.00405002  0.75483194  0.51778320
   0.15847966  0.50208924  0.53342182
   0.16594842  0.70751971  0.34452863
   0.33549207  0.28146299  0.50318003
   0.48530142  0.00240808  0.50981126
   0.50764650  0.28514340  0.34424903
   0.33533032  0.72384370  0.50456207
   0.50644369  0.50209179  0.52817789
   0.50781538  0.71827069  0.34442395
   0.66844413  0.27590633  0.51907702
   0.84092871  0.00275784  0.52199590
   0.83163901  0.27412721  0.34503897
   0.66880039  0.72941533  0.51839207
   0.84814424  0.50299005  0.50088087
   0.83181723  0.73132827  0.34454054
   0.00172508  0.27854974  0.83791626
   0.19878080  0.00164413  0.85235777
   0.19207230  0.23868218  0.67909306
   0.00328149  0.72271104  0.83980260
   0.16948409  0.49792318  0.82579465
   0.18888685  0.76355761  0.67952960
   0.33654310  0.27414170  0.86472899
   0.48204158  0.00175942  0.84891062
   0.47627965  0.24452080  0.67824948
   0.33584047  0.71763324  0.85621913
   0.51538252  0.50058944  0.82803894
   0.47963543  0.75913495  0.67791899
   0.66680033  0.24440555  0.83000999
   0.83336549  0.00199172  0.83938169
   0.83628883  0.29794482  0.67710695
   0.66618725  0.75737352  0.83258747
   0.82184205  0.50198967  0.86120396
   0.83644756  0.70904146  0.67753841
   0.66947230  0.30057398  0.17849137
   0.99905217  0.50272600  0.00996569
   0.33473156  0.50309139  0.01410799
   0.67154014  0.50321807  0.01073711
   0.99656215  0.50181972  0.34169116
   0.33835170  0.50210184  0.33790998
   0.66956223  0.50220398  0.34926649
   0.00085507  0.50448191  0.67137091
   0.33473529  0.00240181  0.66697564
   0.33525954  0.50485945  0.67385286
   0.66973209  0.50485477  0.67617293
   0.16809270  0.24456231  0.17289625
   0.16836139  0.75974948  0.17360148
   0.50611234  0.24149295  0.17420377
   0.50557562  0.76394784  0.17575816
   0.83147713  0.24390844  0.17943932
   0.83138226  0.76100589  0.17951815
   0.16946855  0.75839371  0.50216498
   0.50439232  0.24187841  0.50448133
   0.50481276  0.76407773  0.50550744
   0.83241848  0.23924246  0.51033310
   0.83276196  0.76649462  0.50988207
   0.16577206  0.24947388  0.84153112
   0.16843503  0.76645734  0.84409779
   0.50318933  0.25122339  0.84307071
   0.50112134  0.76054148  0.84614941
   0.83775077  0.24440025  0.83851460
   0.83885502  0.76103654  0.83937383
   0.16964333  0.24730114  0.50189918
   0.33844403  0.04150844  0.94543579
   0.00259632  0.00215742  0.22145140
   0.33456841  0.00201756  0.22919882
   0.84048010  0.00301413  0.00850667
   0.00704804  0.00290819  0.55216150
   0.66638653  0.00101610  0.80095544
Direct configuration=     3
   0.00152929  0.26083100  0.18580593
   0.16516943  0.00149524  0.18940808
   0.15977220  0.27995126  0.01092597
   0.00197111  0.74309010  0.18443103
   0.18047199  0.50132773  0.17282976
   0.16260998  0.71956152  0.01065899
   0.33526088  0.23983602  0.17711311
   0.50386858  0.00166665  0.17952268
   0.51091331  0.28337095  0.01102704
   0.33532907  0.76193236  0.18064116
   0.47561005  0.50093135  0.17705121
   0.50773645  0.71715168  0.01116943
   0.84014448  0.00229455  0.17557858
   0.83455762  0.25158955  0.00940099
   0.66904349  0.70436293  0.17763217
   0.85123679  0.50246845  0.16706200
   0.83482316  0.75344645  0.00956494
   0.00439078  0.25035729  0.51813392
   0.17772318  0.00214902  0.50842279
   0.16646663  0.29601416  0.34436143
   0.00405073  0.75483120  0.51778270
   0.15847988  0.50208944  0.53342136
   0.16594849  0.70751889  0.34452825
   0.33549159  0.28146246  0.50318031
   0.48530113  0.00240840  0.50981244
   0.50764586  0.28514308  0.34424807
   0.33533031  0.72384397  0.50456311
   0.50644405  0.50209206  0.52817721
   0.50781455  0.71827070  0.34442286
   0.66844409  0.27590701  0.51907704
   0.84092953  0.00275730  0.52199577
   0.83163898  0.27412786  0.34503859
   0.66880073  0.72941497  0.51839206
   0.84814420  0.50299069  0.50088194
   0.83181761  0.73132866  0.34454082
   0.00172512  0.27854898  0.83791695
   0.19878058  0.00164433  0.85235783
   0.19207188  0.23868037  0.67909285
   0.00328193  0.72271153  0.83980311
   0.16948500  0.49792339  0.82579462
   0.18888635  0.76355688  0.67952949
   0.33654329  0.27414205  0.86472889
   0.48204161  0.00175941  0.84891007
   0.47627944  0.24452087  0.67824961
   0.33583974  0.71763239  0.85621925
   0.51538252  0.50059007  0.82803879
   0.47963569  0.75913423  0.67791973
   0.66680031  0.24440598  0.83000962
   0.83336579  0.00199062  0.83938242
   0.83628920  0.29794722  0.67710637
   0.66618654  0.75737365  0.83258734
   0.82184229  0.50199085  0.86120364
   0.83644718  0.70904055  0.67753799
   0.66947238  0.30057500  0.17849080
   0.99905213  0.50272609  0.00996569
   0.33473156  0.50309136  0.01410809
   0.67154015  0.50321803  0.01073712
   0.99656213  0.50181963  0.34169110
   0.33835177  0.50210191  0.33790992
   0.66956224  0.50220392  0.34926649
   0.00085502  0.50448189  0.67137091
   0.33473528  0.00240181  0.66697561
   0.33525958  0.50485940  0.67385281
   0.66973211  0.50485470  0.67617287
   0.16809254  0.24456262  0.17289628
   0.16836153  0.75974953  0.17360173
   0.50611235  0.24149272  0.17420380
   0.50557543  0.76394801  0.17575836
   0.83147706  0.24390826  0.17943948
   0.83138217  0.76100569  0.17951800
   0.16946814  0.75839367  0.50216517
   0.50439250  0.24187827  0.50448136
   0.50481291  0.76407762  0.50550734
   0.83241883  0.23924296  0.51033310
   0.83276242  0.76649494  0.50988173
   0.16577216  0.24947412  0.84153130
   0.16843517  0.76645707  0.84409755
   0.50318929  0.25122295  0.84307080
   0.50112095  0.76054170  0.84614935
   0.83775088  0.24440001  0.83851478
   0.83885496  0.76103648  0.83937365
   0.16964295  0.24730105  0.50189908
   0.33844558  0.04151021  0.94543676
   0.00259878  0.00215803  0.22144907
   0.33456877  0.00201681  0.22919859
   0.84047784  0.00301125  0.00850688
   0.00704847  0.00290878  0.55216115
   0.66638719  0.00101646  0.80095419
Direct configuration=     4
   0.00152814  0.26082909  0.18580657
   0.16516925  0.00149394  0.18940728
   0.15977268  0.27995081  0.01092602
   0.00197076  0.74309095  0.18443134
   0.18047145  0.50132747  0.17283014
   0.16261086  0.71956360  0.01065883
   0.33526085  0.23983470  0.17711129
   0.50386873  0.00166799  0.17952194
   0.51091242  0.28337104  0.01102808
   0.33532838  0.76193267  0.18064051
   0.47561213  0.50093037  0.17705165
   0.50773621  0.71715308  0.01116901
   0.84014339  0.00229544  0.17557868
   0.83455707  0.25158788  0.00940234
   0.66904329  0.70436150  0.17763162
   0.85123640  0.50246872  0.16706155
   0.83482329  0.75344576  0.00956635
   0.00439090  0.25035861  0.51813383
   0.17772284  0.00214903  0.50842377
   0.16646672  0.29601497  0.34436090
   0.00405173  0.75483016  0.51778193
   0.15848021  0.50208978  0.53342056
   0.16594860  0.70751758  0.34452748
   0.33549087  0.28146149  0.50318077
   0.48530064  0.00240891  0.50981437
   0.50764484  0.28514255  0.34424637
   0.33533037  0.72384452  0.50456480
   0.50644467  0.50209252  0.52817602
   0.50781320  0.71827071  0.34442096
   0.66844410  0.27590812  0.51907706
   0.84093095  0.00275643  0.52199558
   0.83163891  0.27412893  0.34503807
   0.66880135  0.72941437  0.51839205
   0.84814410  0.50299175  0.50088372
   0.83181823  0.73132930  0.34454137
   0.00172513  0.27854774  0.83791808
   0.19878033  0.00164487  0.85235799
   0.19207120  0.23867729  0.67909234
   0.00328263  0.72271229  0.83980395
   0.16948645  0.49792384  0.82579458
   0.18888552  0.76355580  0.67952916
   0.33654352  0.27414245  0.86472879
   0.48204165  0.00175957  0.84890919
   0.47627911  0.24452086  0.67824967
   0.33583846  0.71763110  0.85621947
   0.51538257  0.50059118  0.82803855
   0.47963613  0.75913316  0.67792081
   0.66680046  0.24440648  0.83000896
   0.83336618  0.00198884  0.83938368
   0.83628979  0.29795115  0.67710525
   0.66618556  0.75737406  0.83258707
   0.82184272  0.50199279  0.86120308
   0.83644655  0.70903908  0.67753713
   0.66947247  0.30057672  0.17848988
   0.99905210  0.50272622  0.00996565
   0.33473156  0.50309132  0.01410824
   0.67154013  0.50321796  0.01073713
   0.99656211  0.50181948  0.34169103
   0.33835186  0.50210203  0.33790982
   0.66956225  0.50220383  0.34926650
   0.00085495  0.50448186  0.67137092
   0.33473525  0.00240181  0.66697554
   0.33525964  0.50485931  0.67385275
   0.66973215  0.50485458  0.67617278
   0.16809226  0.24456311  0.17289635
   0.16836175  0.75974962  0.17360218
   0.50611238  0.24149231  0.17420386
   0.50557511  0.76394830  0.17575869
   0.83147695  0.24390793  0.17943974
   0.83138202  0.76100539  0.17951775
   0.16946745  0.75839364  0.50216552
   0.50439278  0.24187800  0.50448144
   0.50481314  0.76407749  0.50550719
   0.83241941  0.23924378  0.51033310
   0.83276320  0.76649548  0.50988118
   0.16577234  0.24947445  0.84153165
   0.16843538  0.76645659  0.84409717
   0.50318923  0.25122217  0.84307099
   0.50112031  0.76054206  0.84614927
   0.83775106  0.24439958  0.83851511
   0.83885485  0.76103641  0.83937335
   0.16964231  0.24730088  0.50189897
   0.33844805  0.04151314  0.94543819
   0.00260283  0.00215906  0.22144512
   0.33456945  0.00201556  0.22919809
   0.84047407  0.00300647  0.00850723
   0.00704908  0.00290978  0.55216048
   0.66638843  0.00101710  0.80095221
Direct configuration=     5
   0.00152658  0.26082644  0.18580740
   0.16516901  0.00149217  0.18940610
   0.15977337  0.27995011  0.01092618
   0.00197034  0.74309212  0.18443173
   0.18047067  0.50132707  0.17283063
   0.16261211  0.71956660  0.01065867
   0.33526072  0.23983292  0.17710871
   0.50386899  0.00166981  0.17952089
   0.51091116  0.28337111  0.01102949
   0.33532736  0.76193304  0.18063955
   0.47561502  0.50092899  0.17705224
   0.50773587  0.71715513  0.01116837
   0.84014181  0.00229668  0.17557886
   0.83455629  0.25158560  0.00940419
   0.66904305  0.70435966  0.17763083
   0.85123588  0.50246908  0.16706090
   0.83482347  0.75344476  0.00956827
   0.00439119  0.25036048  0.51813369
   0.17772238  0.00214905  0.50842509
   0.16646685  0.29601599  0.34436028
   0.00405322  0.75482868  0.51778081
   0.15848070  0.50209023  0.53341942
   0.16594875  0.70751586  0.34452654
   0.33548982  0.28146011  0.50318140
   0.48530000  0.00240962  0.50981704
   0.50764340  0.28514172  0.34424412
   0.33533040  0.72384533  0.50456716
   0.50644550  0.50209315  0.52817438
   0.50781130  0.71827085  0.34441842
   0.66844407  0.27590956  0.51907708
   0.84093289  0.00275526  0.52199529
   0.83163883  0.27413036  0.34503732
   0.66880215  0.72941366  0.51839202
   0.84814399  0.50299321  0.50088618
   0.83181910  0.73133026  0.34454208
   0.00172516  0.27854592  0.83791965
   0.19877985  0.00164548  0.85235820
   0.19207019  0.23867304  0.67909175
   0.00328359  0.72271349  0.83980510
   0.16948848  0.49792433  0.82579452
   0.18888432  0.76355429  0.67952882
   0.33654390  0.27414305  0.86472858
   0.48204175  0.00175970  0.84890797
   0.47627869  0.24452090  0.67824986
   0.33583675  0.71762935  0.85621975
   0.51538261  0.50059264  0.82803822
   0.47963677  0.75913165  0.67792238
   0.66680058  0.24440722  0.83000808
   0.83336677  0.00198639  0.83938541
   0.83629063  0.29795653  0.67710382
   0.66618410  0.75737460  0.83258673
   0.82184332  0.50199548  0.86120232
   0.83644570  0.70903714  0.67753606
   0.66947265  0.30057898  0.17848857
   0.99905206  0.50272642  0.00996560
   0.33473154  0.50309127  0.01410846
   0.67154012  0.50321787  0.01073714
   0.99656210  0.50181927  0.34169093
   0.33835198  0.50210221  0.33790968
   0.66956227  0.50220371  0.34926652
   0.00085487  0.50448182  0.67137095
   0.33473520  0.00240181  0.66697546
   0.33525971  0.50485919  0.67385267
   0.66973218  0.50485442  0.67617265
   0.16809187  0.24456379  0.17289644
   0.16836206  0.75974973  0.17360278
   0.50611242  0.24149175  0.17420394
   0.50557466  0.76394869  0.17575913
   0.83147679  0.24390747  0.17944010
   0.83138182  0.76100498  0.17951740
   0.16946649  0.75839357  0.50216600
   0.50439317  0.24187763  0.50448156
   0.50481347  0.76407728  0.50550700
   0.83242024  0.23924493  0.51033310
   0.83276428  0.76649623  0.50988039
   0.16577259  0.24947492  0.84153213
   0.16843569  0.76645595  0.84409665
   0.50318913  0.25122110  0.84307125
   0.50111942  0.76054256  0.84614915
   0.83775131  0.24439898  0.83851557
   0.83885470  0.76103629  0.83937294
   0.16964142  0.24730065  0.50189879
   0.33845153  0.04151720  0.94544030
   0.00260845  0.00216048  0.22143963
   0.33457038  0.00201382  0.22919744
   0.84046881  0.00299983  0.00850771
   0.00704995  0.00291116  0.55215959
   0.66639011  0.00101797  0.80094939
Direct configuration=     6
   0.00152463  0.26082320  0.18580847
   0.16516871  0.00148996  0.18940456
   0.15977426  0.27994934  0.01092646
   0.00196983  0.74309344  0.18443222
   0.18046969  0.50132651  0.17283124
   0.16261372  0.71957037  0.01065851
   0.33526050  0.23983086  0.17710538
   0.50386937  0.00167210  0.17951953
   0.51090953  0.28337133  0.01103126
   0.33532606  0.76193331  0.18063831
   0.47561865  0.50092723  0.17705295
   0.50773540  0.71715766  0.01116753
   0.84013973  0.00229826  0.17557912
   0.83455528  0.25158288  0.00940654
   0.66904275  0.70435725  0.17762977
   0.85123528  0.50246951  0.16706002
   0.83482369  0.75344329  0.00957071
   0.00439159  0.25036308  0.51813348
   0.17772184  0.00214908  0.50842676
   0.16646703  0.29601739  0.34435953
   0.00405519  0.75482659  0.51777937
   0.15848135  0.50209078  0.53341799
   0.16594897  0.70751356  0.34452540
   0.33548851  0.28145848  0.50318223
   0.48529920  0.00241051  0.50982049
   0.50764152  0.28514069  0.34424136
   0.33533048  0.72384621  0.50457023
   0.50644653  0.50209394  0.52817232
   0.50780884  0.71827097  0.34441528
   0.66844398  0.27591144  0.51907711
   0.84093531  0.00275387  0.52199488
   0.83163873  0.27413228  0.34503637
   0.66880310  0.72941270  0.51839198
   0.84814390  0.50299505  0.50088931
   0.83182023  0.73133142  0.34454297
   0.00172518  0.27854367  0.83792165
   0.19877919  0.00164616  0.85235840
   0.19206894  0.23866774  0.67909105
   0.00328479  0.72271496  0.83980659
   0.16949116  0.49792490  0.82579439
   0.18888284  0.76355224  0.67952842
   0.33654442  0.27414410  0.86472827
   0.48204187  0.00175981  0.84890636
   0.47627809  0.24452109  0.67825011
   0.33583461  0.71762688  0.85622005
   0.51538265  0.50059448  0.82803775
   0.47963755  0.75912957  0.67792439
   0.66680068  0.24440838  0.83000695
   0.83336756  0.00198328  0.83938760
   0.83629169  0.29796353  0.67710206
   0.66618220  0.75737512  0.83258630
   0.82184405  0.50199889  0.86120139
   0.83644459  0.70903455  0.67753477
   0.66947287  0.30058194  0.17848686
   0.99905202  0.50272667  0.00996555
   0.33473151  0.50309120  0.01410872
   0.67154009  0.50321776  0.01073713
   0.99656210  0.50181901  0.34169081
   0.33835211  0.50210242  0.33790953
   0.66956231  0.50220355  0.34926656
   0.00085480  0.50448176  0.67137099
   0.33473512  0.00240179  0.66697538
   0.33525980  0.50485903  0.67385259
   0.66973220  0.50485421  0.67617251
   0.16809139  0.24456469  0.17289654
   0.16836246  0.75974986  0.17360355
   0.50611247  0.24149108  0.17420403
   0.50557409  0.76394917  0.17575969
   0.83147658  0.24390688  0.17944055
   0.83138158  0.76100443  0.17951694
   0.16946525  0.75839347  0.50216659
   0.50439367  0.24187720  0.50448169
   0.50481390  0.76407698  0.50550674
   0.83242130  0.23924643  0.51033309
   0.83276568  0.76649716  0.50987938
   0.16577292  0.24947555  0.84153272
   0.16843609  0.76645513  0.84409596
   0.50318901  0.25121976  0.84307157
   0.50111827  0.76054319  0.84614900
   0.83775164  0.24439824  0.83851617
   0.83885450  0.76103611  0.83937241
   0.16964028  0.24730038  0.50189856
   0.33845600  0.04152239  0.94544308
   0.00261555  0.00216236  0.22143258
   0.33457156  0.00201162  0.22919664
   0.84046205  0.00299135  0.00850834
   0.00705111  0.00291292  0.55215848
   0.66639221  0.00101905  0.80094573
Direct configuration=     7
   0.00152235  0.26081926  0.18580970
   0.16516836  0.00148730  0.18940264
   0.15977533  0.27994834  0.01092685
   0.00196926  0.74309504  0.18443276
   0.18046845  0.50132577  0.17283193
   0.16261569  0.71957501  0.01065837
   0.33526013  0.23982842  0.17710128
   0.50386989  0.00167478  0.17951786
   0.51090754  0.28337151  0.01103336
   0.33532443  0.76193355  0.18063675
   0.47562308  0.50092511  0.17705379
   0.50773480  0.71716083  0.01116650
   0.84013709  0.00230014  0.17557950
   0.83455404  0.25157958  0.00940933
   0.66904242  0.70435447  0.17762848
   0.85123454  0.50247005  0.16705897
   0.83482395  0.75344148  0.00957364
   0.00439216  0.25036629  0.51813318
   0.17772119  0.00214911  0.50842877
   0.16646726  0.29601899  0.34435877
   0.00405766  0.75482400  0.51777757
   0.15848218  0.50209141  0.53341618
   0.16594926  0.70751086  0.34452419
   0.33548685  0.28145642  0.50318325
   0.48529829  0.00241155  0.50982467
   0.50763922  0.28513933  0.34423815
   0.33533051  0.72384738  0.50457399
   0.50644776  0.50209490  0.52816975
   0.50780581  0.71827125  0.34441158
   0.66844387  0.27591363  0.51907712
   0.84093821  0.00275225  0.52199437
   0.83163860  0.27413457  0.34503526
   0.66880422  0.72941164  0.51839190
   0.84814378  0.50299727  0.50089310
   0.83182160  0.73133289  0.34454405
   0.00172521  0.27854083  0.83792412
   0.19877831  0.00164688  0.85235862
   0.19206734  0.23866129  0.67909034
   0.00328623  0.72271685  0.83980841
   0.16949440  0.49792539  0.82579426
   0.18888100  0.76354977  0.67952803
   0.33654511  0.27414533  0.86472781
   0.48204204  0.00175992  0.84890438
   0.47627742  0.24452135  0.67825051
   0.33583206  0.71762401  0.85622037
   0.51538265  0.50059659  0.82803723
   0.47963853  0.75912706  0.67792687
   0.66680074  0.24440982  0.83000559
   0.83336859  0.00197956  0.83939024
   0.83629300  0.29797194  0.67710004
   0.66617981  0.75737575  0.83258581
   0.82184499  0.50200299  0.86120026
   0.83644326  0.70903153  0.67753332
   0.66947318  0.30058541  0.17848474
   0.99905197  0.50272697  0.00996549
   0.33473146  0.50309111  0.01410904
   0.67154006  0.50321761  0.01073711
   0.99656211  0.50181868  0.34169066
   0.33835227  0.50210268  0.33790935
   0.66956235  0.50220336  0.34926661
   0.00085473  0.50448169  0.67137104
   0.33473502  0.00240177  0.66697528
   0.33525991  0.50485883  0.67385250
   0.66973221  0.50485396  0.67617234
   0.16809080  0.24456586  0.17289665
   0.16836293  0.75974995  0.17360446
   0.50611252  0.24149033  0.17420413
   0.50557337  0.76394971  0.17576036
   0.83147634  0.24390619  0.17944110
   0.83138129  0.76100375  0.17951638
   0.16946375  0.75839330  0.50216727
   0.50439426  0.24187673  0.50448183
   0.50481440  0.76407656  0.50550643
   0.83242259  0.23924830  0.51033306
   0.83276739  0.76649824  0.50987814
   0.16577334  0.24947638  0.84153340
   0.16843661  0.76645414  0.84409511
   0.50318885  0.25121822  0.84307195
   0.50111687  0.76054390  0.84614879
   0.83775203  0.24439737  0.83851692
   0.83885425  0.76103583  0.83937177
   0.16963891  0.24730012  0.50189826
   0.33846143  0.04152873  0.94544649
   0.00262407  0.00216469  0.22142398
   0.33457297  0.00200897  0.22919568
   0.84045379  0.00298110  0.00850914
   0.00705257  0.00291505  0.55215713
   0.66639469  0.00102033  0.80094125
Direct configuration=     8
   0.00151966  0.26081427  0.18581123
   0.16516799  0.00148420  0.18940040
   0.15977658  0.27994681  0.01092723
   0.00196853  0.74309727  0.18443347
   0.18046697  0.50132493  0.17283283
   0.16261798  0.71958077  0.01065816
   0.33525973  0.23982515  0.17709648
   0.50387051  0.00167774  0.17951590
   0.51090521  0.28337138  0.01103578
   0.33532265  0.76193420  0.18063496
   0.47562839  0.50092271  0.17705486
   0.50773411  0.71716487  0.01116540
   0.84013400  0.00230222  0.17557996
   0.83455256  0.25157539  0.00941244
   0.66904202  0.70435146  0.17762706
   0.85123364  0.50247072  0.16705779
   0.83482425  0.75343964  0.00957703
   0.00439269  0.25036969  0.51813283
   0.17772027  0.00214912  0.50843100
   0.16646751  0.29602055  0.34435788
   0.00406042  0.75482135  0.51777547
   0.15848310  0.50209211  0.53341407
   0.16594959  0.70750798  0.34452279
   0.33548502  0.28145374  0.50318439
   0.48529736  0.00241273  0.50982945
   0.50763653  0.28513735  0.34423448
   0.33533065  0.72384900  0.50457833
   0.50644926  0.50209602  0.52816663
   0.50780227  0.71827194  0.34440729
   0.66844377  0.27591587  0.51907710
   0.84094165  0.00275045  0.52199378
   0.83163841  0.27413700  0.34503404
   0.66880552  0.72941075  0.51839175
   0.84814361  0.50299983  0.50089757
   0.83182319  0.73133493  0.34454527
   0.00172516  0.27853715  0.83792701
   0.19877726  0.00164771  0.85235905
   0.19206528  0.23865355  0.67908958
   0.00328785  0.72271935  0.83981054
   0.16949810  0.49792591  0.82579418
   0.18887862  0.76354693  0.67952761
   0.33654590  0.27414643  0.86472741
   0.48204234  0.00176012  0.84890218
   0.47627677  0.24452151  0.67825092
   0.33582906  0.71762084  0.85622086
   0.51538271  0.50059897  0.82803667
   0.47963983  0.75912422  0.67792965
   0.66680095  0.24441115  0.83000399
   0.83336976  0.00197531  0.83939330
   0.83629456  0.29798149  0.67709778
   0.66617717  0.75737685  0.83258523
   0.82184614  0.50200771  0.86119888
   0.83644172  0.70902832  0.67753168
   0.66947354  0.30058928  0.17848236
   0.99905192  0.50272734  0.00996541
   0.33473141  0.50309101  0.01410941
   0.67154001  0.50321744  0.01073709
   0.99656211  0.50181830  0.34169049
   0.33835245  0.50210299  0.33790914
   0.66956240  0.50220313  0.34926665
   0.00085463  0.50448161  0.67137111
   0.33473491  0.00240175  0.66697516
   0.33526004  0.50485858  0.67385239
   0.66973223  0.50485366  0.67617214
   0.16809012  0.24456718  0.17289678
   0.16836348  0.75975011  0.17360554
   0.50611259  0.24148944  0.17420425
   0.50557254  0.76395037  0.17576114
   0.83147603  0.24390535  0.17944176
   0.83138094  0.76100296  0.17951576
   0.16946198  0.75839313  0.50216802
   0.50439496  0.24187619  0.50448195
   0.50481501  0.76407607  0.50550603
   0.83242410  0.23925049  0.51033302
   0.83276939  0.76649952  0.50987667
   0.16577383  0.24947739  0.84153419
   0.16843722  0.76645301  0.84409410
   0.50318868  0.25121640  0.84307239
   0.50111522  0.76054476  0.84614856
   0.83775252  0.24439635  0.83851777
   0.83885397  0.76103547  0.83937096
   0.16963729  0.24729980  0.50189786
   0.33846776  0.04153622  0.94545051
   0.00263392  0.00216743  0.22141382
   0.33457458  0.00200587  0.22919457
   0.84044404  0.00296914  0.00851011
   0.00705436  0.00291754  0.55215552
   0.66639754  0.00102179  0.80093596
Direct configuration=     9
   0.00151661  0.26080855  0.18581303
   0.16516760  0.00148078  0.18939790
   0.15977802  0.27994516  0.01092761
   0.00196763  0.74309983  0.18443432
   0.18046524  0.50132391  0.17283392
   0.16262058  0.71958716  0.01065793
   0.33525926  0.23982140  0.17709103
   0.50387109  0.00168101  0.17951368
   0.51090252  0.28337134  0.01103840
   0.33532074  0.76193492  0.18063298
   0.47563441  0.50092006  0.17705610
   0.50773330  0.71716932  0.01116422
   0.84013058  0.00230449  0.17558045
   0.83455085  0.25157060  0.00941585
   0.66904156  0.70434785  0.17762548
   0.85123265  0.50247150  0.16705646
   0.83482456  0.75343756  0.00958087
   0.00439314  0.25037359  0.51813245
   0.17771917  0.00214914  0.50843356
   0.16646779  0.29602245  0.34435678
   0.00406342  0.75481833  0.51777310
   0.15848414  0.50209287  0.53341169
   0.16594998  0.70750456  0.34452118
   0.33548303  0.28145083  0.50318567
   0.48529623  0.00241404  0.50983496
   0.50763343  0.28513525  0.34423038
   0.33533090  0.72385073  0.50458326
   0.50645095  0.50209730  0.52816304
   0.50779819  0.71827259  0.34440246
   0.66844371  0.27591859  0.51907710
   0.84094572  0.00274856  0.52199315
   0.83163820  0.27413998  0.34503276
   0.66880697  0.72940957  0.51839158
   0.84814347  0.50300269  0.50090264
   0.83182502  0.73133709  0.34454668
   0.00172497  0.27853313  0.83793028
   0.19877623  0.00164880  0.85235958
   0.19206294  0.23864481  0.67908865
   0.00328956  0.72272198  0.83981294
   0.16950231  0.49792647  0.82579402
   0.18887590  0.76354362  0.67952702
   0.33654681  0.27414771  0.86472702
   0.48204265  0.00176055  0.84889966
   0.47627601  0.24452178  0.67825129
   0.33582569  0.71761712  0.85622143
   0.51538282  0.50060159  0.82803600
   0.47964131  0.75912088  0.67793265
   0.66680136  0.24441262  0.83000211
   0.83337097  0.00197061  0.83939684
   0.83629634  0.29799251  0.67709525
   0.66617433  0.75737816  0.83258454
   0.82184740  0.50201297  0.86119731
   0.83643997  0.70902456  0.67752982
   0.66947394  0.30059391  0.17847966
   0.99905184  0.50272775  0.00996536
   0.33473135  0.50309088  0.01410985
   0.67153997  0.50321724  0.01073705
   0.99656214  0.50181787  0.34169029
   0.33835265  0.50210334  0.33790891
   0.66956246  0.50220286  0.34926670
   0.00085455  0.50448151  0.67137118
   0.33473478  0.00240172  0.66697502
   0.33526019  0.50485829  0.67385228
   0.66973223  0.50485331  0.67617193
   0.16808935  0.24456874  0.17289694
   0.16836409  0.75975024  0.17360678
   0.50611268  0.24148849  0.17420438
   0.50557159  0.76395108  0.17576201
   0.83147566  0.24390441  0.17944251
   0.83138056  0.76100202  0.17951504
   0.16945997  0.75839289  0.50216886
   0.50439574  0.24187563  0.50448208
   0.50481569  0.76407544  0.50550559