unknown system                          
           1
    11.636000    0.000000    0.000000
     0.000000    7.905000    0.000000
     0.000000    0.000000   11.636000
   O    La   Ti   Li
    54    10    18     6
Direct configuration=     1
   0.00161372  0.25934783  0.18561015
   0.16554924  0.00086093  0.18859469
   0.15989255  0.27925002  0.01036064
   0.00208638  0.74310390  0.18390004
   0.17997175  0.50068164  0.17225288
   0.16296221  0.71908821  0.01011254
   0.33532231  0.23954795  0.17619851
   0.50384904  0.00114041  0.17802936
   0.51059116  0.28360095  0.01044835
   0.33544393  0.76089421  0.17995332
   0.47596435  0.50022917  0.17705765
   0.50735155  0.71580359  0.01056828
   0.83975240  0.00168255  0.17519254
   0.83491171  0.25113235  0.00911640
   0.66916866  0.70342915  0.17695007
   0.85185047  0.50193726  0.16652947
   0.83527182  0.75242704  0.00929864
   0.00448658  0.25041807  0.51753340
   0.17760350  0.00148964  0.50773530
   0.16680545  0.29571398  0.34381971
   0.00419278  0.75377289  0.51712236
   0.15901802  0.50144477  0.53311751
   0.16638656  0.70652028  0.34394595
   0.33566095  0.28023056  0.50280571
   0.48563608  0.00187600  0.50969389
   0.50775406  0.28355968  0.34355942
   0.33555216  0.72393042  0.50467160
   0.50650618  0.50154298  0.52683828
   0.50765073  0.71869626  0.34376454
   0.66871305  0.27579448  0.51851357
   0.84175195  0.00236351  0.52054792
   0.83148899  0.27457074  0.34442114
   0.66912110  0.72853030  0.51770612
   0.84833907  0.50260874  0.50092363
   0.83186426  0.73027115  0.34391353
   0.00195689  0.27698262  0.83740721
   0.19955080  0.00096435  0.85198185
   0.19206015  0.23732860  0.67857739
   0.00351820  0.72284456  0.83942847
   0.16936056  0.49711000  0.82512633
   0.18859351  0.76314152  0.67892891
   0.33669897  0.27391509  0.86399587
   0.48302418  0.00123323  0.84899320
   0.47655177  0.24432183  0.67770469
   0.33582359  0.71631338  0.85533484
   0.51558139  0.50022589  0.82719294
   0.48025758  0.75797130  0.67742482
   0.66705881  0.24495777  0.83077930
   0.83315757  0.00135269  0.84007140
   0.83638419  0.29745503  0.67668729
   0.66638262  0.75584965  0.83353551
   0.82292520  0.50157743  0.86061163
   0.83642621  0.70891780  0.67706934
   0.66963804  0.30034859  0.17768030
   0.99925519  0.50262313  0.00917949
   0.33480404  0.50251557  0.01390971
   0.67167029  0.50268798  0.00959763
   0.99661311  0.50118223  0.34081437
   0.33867764  0.50153795  0.33744095
   0.66957803  0.50160643  0.34854779
   0.00101288  0.50412511  0.67086864
   0.33484496  0.00171954  0.66597770
   0.33527725  0.50403758  0.67314949
   0.67002000  0.50428638  0.67524852
   0.16820656  0.24411794  0.17225226
   0.16844047  0.75930317  0.17316144
   0.50631514  0.24106689  0.17340398
   0.50562961  0.76350719  0.17498757
   0.83164975  0.24335216  0.17857080
   0.83140479  0.76025258  0.17857610
   0.16950687  0.75771170  0.50160377
   0.50478502  0.24121072  0.50375794
   0.50507744  0.76368261  0.50487266
   0.83288966  0.23892330  0.50951482
   0.83303330  0.76607047  0.50889706
   0.16589826  0.24858114  0.84094185
   0.16857678  0.76602376  0.84348796
   0.50306156  0.25107618  0.84212032
   0.50084189  0.75928756  0.84525238
   0.83801408  0.24381135  0.83779504
   0.83887481  0.76055828  0.83846572
   0.16987928  0.24679393  0.50126485
   0.33928802  0.04221805  0.94545588
   0.00292955  0.00153054  0.21986023
   0.33474607  0.00149161  0.22821333
   0.84165323  0.00220254  0.00839151
   0.00734194  0.00241007  0.55098083
   0.66537434  0.00043254  0.81104232
Direct configuration=     2
   0.00160797  0.25934183  0.18562188
   0.16555375  0.00085776  0.18859558
   0.15989437  0.27924686  0.01036011
   0.00208958  0.74310733  0.18391120
   0.17997713  0.50068282  0.17225075
   0.16296395  0.71908883  0.01010856
   0.33532924  0.23954436  0.17620204
   0.50384671  0.00113514  0.17803063
   0.51058689  0.28360977  0.01044857
   0.33544761  0.76089625  0.17995729
   0.47595907  0.50023396  0.17706996
   0.50734685  0.71579705  0.01056201
   0.83976134  0.00167997  0.17520263
   0.83492778  0.25112609  0.00912218
   0.66917201  0.70342881  0.17694930
   0.85184648  0.50192793  0.16653376
   0.83528865  0.75242389  0.00930153
   0.00447548  0.25041743  0.51754238
   0.17761162  0.00149466  0.50773899
   0.16681579  0.29570950  0.34382883
   0.00419618  0.75377943  0.51712522
   0.15901615  0.50144432  0.53311968
   0.16639115  0.70652590  0.34395465
   0.33566168  0.28022580  0.50281049
   0.48563177  0.00188675  0.50969518
   0.50775531  0.28355779  0.34355575
   0.33554542  0.72392953  0.50467478
   0.50650766  0.50154169  0.52684106
   0.50765334  0.71869771  0.34375802
   0.66872114  0.27580165  0.51851231
   0.84176026  0.00235485  0.52054669
   0.83148472  0.27456868  0.34442386
   0.66912741  0.72852621  0.51771032
   0.84835159  0.50260265  0.50092845
   0.83186574  0.73026764  0.34391654
   0.00194739  0.27698100  0.83739729
   0.19955502  0.00095549  0.85198000
   0.19207167  0.23732768  0.67858983
   0.00351966  0.72284735  0.83942564
   0.16937527  0.49711230  0.82512721
   0.18860264  0.76314291  0.67892973
   0.33669683  0.27390359  0.86400252
   0.48303285  0.00123382  0.84900624
   0.47655290  0.24431838  0.67770859
   0.33582132  0.71632459  0.85534139
   0.51557432  0.50022605  0.82719496
   0.48025901  0.75797569  0.67742775
   0.66706563  0.24496634  0.83080381
   0.83315750  0.00134644  0.84008612
   0.83638464  0.29745058  0.67669728
   0.66639103  0.75583597  0.83355780
   0.82293588  0.50157607  0.86061703
   0.83642325  0.70892607  0.67707665
   0.66964840  0.30034817  0.17768125
   0.99925413  0.50262259  0.00918277
   0.33480517  0.50251441  0.01391367
   0.67167158  0.50268583  0.00959633
   0.99661449  0.50118123  0.34081541
   0.33867669  0.50153802  0.33744280
   0.66957809  0.50160548  0.34854808
   0.00101074  0.50412397  0.67087029
   0.33484624  0.00171945  0.66598014
   0.33527640  0.50403651  0.67314855
   0.67001872  0.50428506  0.67524713
   0.16820525  0.24411808  0.17225645
   0.16844067  0.75930232  0.17316316
   0.50631200  0.24106505  0.17340441
   0.50562689  0.76350655  0.17498576
   0.83165275  0.24334709  0.17857106
   0.83140993  0.76025509  0.17857607
   0.16950679  0.75771244  0.50160362
   0.50478451  0.24120559  0.50376048
   0.50507771  0.76367872  0.50487540
   0.83288631  0.23892364  0.50951467
   0.83303250  0.76607150  0.50889583
   0.16589702  0.24857883  0.84094612
   0.16857579  0.76602445  0.84349136
   0.50305817  0.25107891  0.84212032
   0.50083905  0.75928386  0.84525248
   0.83801339  0.24381007  0.83779699
   0.83887433  0.76056091  0.83846801
   0.16988217  0.24679373  0.50126738
   0.33928451  0.04221152  0.94546440
   0.00292077  0.00152829  0.21988854
   0.33474426  0.00149008  0.22821312
   0.84171458  0.00220029  0.00839101
   0.00733711  0.00240274  0.55098901
   0.66537145  0.00044810  0.81114751
Direct configuration=     3
   0.00160291  0.25933559  0.18563352
   0.16555837  0.00085469  0.18859682
   0.15989635  0.27924347  0.01035933
   0.00209396  0.74311138  0.18392273
   0.17998268  0.50068359  0.17224864
   0.16296575  0.71908974  0.01010474
   0.33533603  0.23954047  0.17620564
   0.50384429  0.00113019  0.17803193
   0.51058232  0.28361827  0.01044873
   0.33545112  0.76089858  0.17996148
   0.47595366  0.50023864  0.17708268
   0.50734209  0.71579119  0.01055633
   0.83977077  0.00167763  0.17521259
   0.83494403  0.25111954  0.00912752
   0.66917398  0.70342859  0.17694808
   0.85184261  0.50191822  0.16653798
   0.83530544  0.75242155  0.00930425
   0.00446601  0.25041666  0.51755110
   0.17761956  0.00150002  0.50774273
   0.16682623  0.29570482  0.34383813
   0.00420070  0.75378603  0.51712783
   0.15901466  0.50144359  0.53312156
   0.16639572  0.70653160  0.34396417
   0.33566234  0.28022124  0.50281544
   0.48562730  0.00189731  0.50969669
   0.50775600  0.28355576  0.34355237
   0.33553825  0.72392852  0.50467770
   0.50650854  0.50153999  0.52684385
   0.50765582  0.71869909  0.34375182
   0.66872844  0.27580860  0.51851096
   0.84176825  0.00234597  0.52054550
   0.83148085  0.27456658  0.34442766
   0.66913236  0.72852233  0.51771421
   0.84836450  0.50259673  0.50093313
   0.83186777  0.73026393  0.34392051
   0.00193799  0.27697947  0.83738760
   0.19955948  0.00094738  0.85197819
   0.19208332  0.23732695  0.67860093
   0.00352100  0.72285017  0.83942270
   0.16938988  0.49711469  0.82512773
   0.18861196  0.76314416  0.67893039
   0.33669558  0.27389213  0.86400912
   0.48304148  0.00123372  0.84901876
   0.47655368  0.24431512  0.67771216
   0.33582043  0.71633607  0.85534738
   0.51556689  0.50022510  0.82719667
   0.48026005  0.75798055  0.67743116
   0.66707195  0.24497481  0.83082822
   0.83315726  0.00134105  0.84010092
   0.83638513  0.29744623  0.67670696
   0.66639911  0.75582244  0.83358005
   0.82294647  0.50157405  0.86062234
   0.83642039  0.70893439  0.67708371
   0.66965775  0.30034765  0.17768192
   0.99925303  0.50262210  0.00918602
   0.33480625  0.50251327  0.01391760
   0.67167288  0.50268366  0.00959507
   0.99661579  0.50118019  0.34081642
   0.33867577  0.50153816  0.33744462
   0.66957818  0.50160453  0.34854832
   0.00100854  0.50412279  0.67087198
   0.33484745  0.00171932  0.66598261
   0.33527553  0.50403551  0.67314767
   0.67001750  0.50428377  0.67524571
   0.16820368  0.24411853  0.17226063
   0.16844079  0.75930121  0.17316458
   0.50630928  0.24106357  0.17340473
   0.50562443  0.76350532  0.17498380
   0.83165550  0.24334212  0.17857142
   0.83141483  0.76025749  0.17857610
   0.16950671  0.75771312  0.50160367
   0.50478445  0.24120063  0.50376293
   0.50507851  0.76367456  0.50487809
   0.83288277  0.23892436  0.50951442
   0.83303145  0.76607228  0.50889446
   0.16589569  0.24857668  0.84095072
   0.16857468  0.76602487  0.84349504
   0.50305479  0.25108171  0.84212058
   0.50083609  0.75928006  0.84525277
   0.83801273  0.24380890  0.83779895
   0.83887401  0.76056317  0.83847037
   0.16988469  0.24679347  0.50127012
   0.33928107  0.04220486  0.94547268
   0.00291113  0.00152665  0.21991671
   0.33474272  0.00148818  0.22821258
   0.84177673  0.00219694  0.00839062
   0.00733238  0.00239576  0.55099730
   0.66536845  0.00046512  0.81125321
Direct configuration=     4
   0.00159873  0.25932905  0.18564510
   0.16556307  0.00085168  0.18859835
   0.15989843  0.27923962  0.01035844
   0.00209959  0.74311609  0.18393465
   0.17998823  0.50068388  0.17224660
   0.16296758  0.71909117  0.01010121
   0.33534261  0.23953628  0.17620927
   0.50384188  0.00112546  0.17803324
   0.51057746  0.28362634  0.01044905
   0.33545442  0.76090127  0.17996583
   0.47594822  0.50024318  0.17709575
   0.50733729  0.71578618  0.01055139
   0.83978059  0.00167542  0.17522255
   0.83496054  0.25111265  0.00913244
   0.66917462  0.70342878  0.17694644
   0.85183893  0.50190827  0.16654211
   0.83532231  0.75242002  0.00930690
   0.00445831  0.25041571  0.51755957
   0.17762737  0.00150572  0.50774648
   0.16683676  0.29569976  0.34384769
   0.00420633  0.75379270  0.51713017
   0.15901359  0.50144252  0.53312313
   0.16640025  0.70653755  0.34397446
   0.33566296  0.28021670  0.50282057
   0.48562281  0.00190749  0.50969835
   0.50775620  0.28355333  0.34354942
   0.33553086  0.72392758  0.50468036
   0.50650884  0.50153798  0.52684659
   0.50765826  0.71870074  0.34374609
   0.66873490  0.27581515  0.51850949
   0.84177580  0.00233683  0.52054425
   0.83147731  0.27456423  0.34443258
   0.66913592  0.72851889  0.51771775
   0.84837769  0.50259103  0.50093769
   0.83187031  0.73026023  0.34392540
   0.00192887  0.27697768  0.83737816
   0.19956400  0.00093981  0.85197649
   0.19209501  0.23732632  0.67861098
   0.00352233  0.72285335  0.83941970
   0.16940435  0.49711686  0.82512800
   0.18862139  0.76314535  0.67893119
   0.33669520  0.27388042  0.86401567
   0.48305016  0.00123279  0.84903086
   0.47655423  0.24431197  0.67771547
   0.33582092  0.71634812  0.85535286
   0.51555912  0.50022296  0.82719807
   0.48026082  0.75798595  0.67743501
   0.66707773  0.24498330  0.83085271
   0.83315697  0.00133646  0.84011582
   0.83638558  0.29744172  0.67671648
   0.66640682  0.75580898  0.83360240
   0.82295701  0.50157135  0.86062761
   0.83641761  0.70894301  0.67709065
   0.66966603  0.30034677  0.17768233
   0.99925187  0.50262163  0.00918931
   0.33480732  0.50251214  0.01392154
   0.67167418  0.50268146  0.00959384
   0.99661702  0.50117909  0.34081743
   0.33867488  0.50153836  0.33744642
   0.66957829  0.50160359  0.34854851
   0.00100627  0.50412158  0.67087364
   0.33484859  0.00171913  0.66598513
   0.33527466  0.50403457  0.67314682
   0.67001630  0.50428250  0.67524424
   0.16820187  0.24411929  0.17226477
   0.16844082  0.75929987  0.17316568
   0.50630699  0.24106246  0.17340492
   0.50562223  0.76350352  0.17498172
   0.83165798  0.24333725  0.17857189
   0.83141946  0.76025975  0.17857617
   0.16950660  0.75771377  0.50160389
   0.50478485  0.24119589  0.50376525
   0.50507985  0.76367010  0.50488069
   0.83287907  0.23892543  0.50951406
   0.83303018  0.76607283  0.50889296
   0.16589424  0.24857482  0.84095556
   0.16857349  0.76602510  0.84349892
   0.50305146  0.25108460  0.84212106
   0.50083305  0.75927623  0.84525321
   0.83801207  0.24380787  0.83780090
   0.83887383  0.76056506  0.83847278
   0.16988679  0.24679316  0.50127302
   0.33927774  0.04219809  0.94548076
   0.00290079  0.00152560  0.21994480
   0.33474140  0.00148590  0.22821183
   0.84183971  0.00219252  0.00839038
   0.00732789  0.00238920  0.55100571
   0.66536523  0.00048340  0.81135941
Direct configuration=     5
   0.00159556  0.25932233  0.18565669
   0.16556781  0.00084882  0.18860022
   0.15990055  0.27923550  0.01035746
   0.00210645  0.74312132  0.18394700
   0.17999383  0.50068368  0.17224467
   0.16296937  0.71909286  0.01009803
   0.33534896  0.23953178  0.17621296
   0.50383945  0.00112101  0.17803457
   0.51057232  0.28363422  0.01044966
   0.33545751  0.76090424  0.17997036
   0.47594270  0.50024759  0.17710915
   0.50733245  0.71578169  0.01054740
   0.83979086  0.00167326  0.17523243
   0.83497733  0.25110551  0.00913697
   0.66917388  0.70342908  0.17694434
   0.85183553  0.50189819  0.16654616
   0.83533929  0.75241920  0.00930955
   0.00445240  0.25041459  0.51756780
   0.17763506  0.00151178  0.50775033
   0.16684733  0.29569459  0.34385729
   0.00421290  0.75379935  0.51713229
   0.15901287  0.50144108  0.53312451
   0.16640474  0.70654342  0.34398530
   0.33566364  0.28021238  0.50282590
   0.48561822  0.00191712  0.50970020
   0.50775594  0.28355072  0.34354691
   0.33552349  0.72392654  0.50468278
   0.50650862  0.50153573  0.52684933
   0.50766066  0.71870245  0.34374091
   0.66874045  0.27582151  0.51850796
   0.84178291  0.00232752  0.52054299
   0.83147413  0.27456184  0.34443868
   0.66913803  0.72851565  0.51772096
   0.84839117  0.50258559  0.50094211
   0.83187335  0.73025633  0.34393123
   0.00192024  0.27697591  0.83736900
   0.19956871  0.00093301  0.85197492
   0.19210684  0.23732577  0.67861985
   0.00352368  0.72285655  0.83941664
   0.16941857  0.49711884  0.82512803
   0.18863102  0.76314644  0.67893211
   0.33669569  0.27386861  0.86402227
   0.48305880  0.00123114  0.84904250
   0.47655446  0.24430891  0.67771843
   0.33582279  0.71636043  0.85535788
   0.51555103  0.50021968  0.82719909
   0.48026122  0.75799185  0.67743917
   0.66708295  0.24499191  0.83087721
   0.83315661  0.00133274  0.84013080
   0.83638592  0.29743735  0.67672568
   0.66641416  0.75579550  0.83362482
   0.82296751  0.50156798  0.86063290
   0.83641491  0.70895158  0.67709735
   0.66967308  0.30034582  0.17768246
   0.99925068  0.50262121  0.00919252
   0.33480836  0.50251105  0.01392543
   0.67167549  0.50267922  0.00959264
   0.99661821  0.50117794  0.34081845
   0.33867399  0.50153862  0.33744821
   0.66957843  0.50160265  0.34854864
   0.00100397  0.50412034  0.67087539
   0.33484967  0.00171890  0.66598771
   0.33527375  0.50403369  0.67314607
   0.67001514  0.50428125  0.67524277
   0.16819982  0.24412039  0.17226887
   0.16844079  0.75929824  0.17316647
   0.50630514  0.24106177  0.17340498
   0.50562028  0.76350109  0.17497948
   0.83166015  0.24333255  0.17857248
   0.83142380  0.76026182  0.17857629
   0.16950648  0.75771436  0.50160431
   0.50478569  0.24119141  0.50376742
   0.50508169  0.76366532  0.50488317
   0.83287523  0.23892689  0.50951358
   0.83302873  0.76607309  0.50889134
   0.16589272  0.24857329  0.84096063
   0.16857224  0.76602507  0.84350296
   0.50304813  0.25108763  0.84212176
   0.50082990  0.75927232  0.84525382
   0.83801143  0.24380704  0.83780283
   0.83887378  0.76056652  0.83847520
   0.16988846  0.24679285  0.50127612
   0.33927453  0.04219118  0.94548856
   0.00288989  0.00152511  0.21997284
   0.33474037  0.00148323  0.22821087
   0.84190353  0.00218707  0.00839034
   0.00732365  0.00238309  0.55101427
   0.66536175  0.00050261  0.81146609
Direct configuration=     6
   0.00159351  0.25931520  0.18566825
   0.16557255  0.00084609  0.18860233
   0.15990267  0.27923064  0.01035652
   0.00211455  0.74312727  0.18395973
   0.17999937  0.50068296  0.17224288
   0.16297112  0.71909533  0.01009533
   0.33535495  0.23952683  0.17621664
   0.50383714  0.00111686  0.17803588
   0.51056692  0.28364154  0.01045063
   0.33546029  0.76090772  0.17997502
   0.47593727  0.50025180  0.17712280
   0.50732762  0.71577813  0.01054435
   0.83980145  0.00167106  0.17524230
   0.83499446  0.25109787  0.00914118
   0.66917191  0.70343005  0.17694179
   0.85183240  0.50188808  0.16655013
   0.83535643  0.75241934  0.00931230
   0.00444844  0.25041311  0.51757578
   0.17764255  0.00151820  0.50775416
   0.16685794  0.29568886  0.34386694
   0.00422042  0.75380621  0.51713419
   0.15901255  0.50143924  0.53312559
   0.16640917  0.70654964  0.34399663
   0.33566437  0.28020800  0.50283138
   0.48561377  0.00192605  0.50970208
   0.50775526  0.28354745  0.34354498
   0.33551625  0.72392568  0.50468490
   0.50650783  0.50153333  0.52685199
   0.50766306  0.71870474  0.34373650
   0.66874499  0.27582726  0.51850634
   0.84178943  0.00231807  0.52054164
   0.83147125  0.27455897  0.34444591
   0.66913861  0.72851304  0.51772379
   0.84840489  0.50258042  0.50094652
   0.83187686  0.73025263  0.34393791
   0.00191231  0.27697362  0.83736014
   0.19957328  0.00092685  0.85197356
   0.19211859  0.23732523  0.67862769
   0.00352514  0.72286038  0.83941354
   0.16943255  0.49712046  0.82512788
   0.18864068  0.76314754  0.67893329
   0.33669703  0.27385639  0.86402891
   0.48306761  0.00122863  0.84905380
   0.47655462  0.24430590  0.67772111
   0.33582604  0.71637346  0.85536249
   0.51554262  0.50021524  0.82719974
   0.48026149  0.75799832  0.67744363
   0.66708749  0.24500047  0.83090184
   0.83315630  0.00132987  0.84014589
   0.83638610  0.29743264  0.67673461
   0.66642102  0.75578222  0.83364740
   0.82297799  0.50156397  0.86063820
   0.83641227  0.70896059  0.67710388
   0.66967890  0.30034426  0.17768229
   0.99924941  0.50262083  0.00919579
   0.33480940  0.50250996  0.01392934
   0.67167682  0.50267696  0.00959146
   0.99661933  0.50117673  0.34081947
   0.33867315  0.50153896  0.33745001
   0.66957860  0.50160171  0.34854873
   0.00100159  0.50411905  0.67087710
   0.33485068  0.00171861  0.66599034
   0.33527282  0.50403287  0.67314533
   0.67001402  0.50428003  0.67524125
   0.16819755  0.24412170  0.17227292
   0.16844071  0.75929646  0.17316693
   0.50630377  0.24106138  0.17340492
   0.50561865  0.76349819  0.17497711
   0.83166199  0.24332796  0.17857318
   0.83142779  0.76026375  0.17857647
   0.16950631  0.75771498  0.50160496
   0.50478699  0.24118710  0.50376941
   0.50508406  0.76366032  0.50488551
   0.83287127  0.23892861  0.50951301
   0.83302708  0.76607319  0.50888962
   0.16589106  0.24857197  0.84096590
   0.16857088  0.76602488  0.84350714
   0.50304482  0.25109071  0.84212271
   0.50082667  0.75926843  0.84525463
   0.83801080  0.24380631  0.83780473
   0.83887388  0.76056761  0.83847762
   0.16988968  0.24679243  0.50127945
   0.33927148  0.04218413  0.94549614
   0.00287856  0.00152519  0.22000085
   0.33473962  0.00148017  0.22820972
   0.84196822  0.00218060  0.00839055
   0.00731972  0.00237747  0.55102297
   0.66535798  0.00052256  0.81157329
Direct configuration=     7
   0.00159276  0.25930812  0.18567981
   0.16557727  0.00084371  0.18860470
   0.15990478  0.27922566  0.01035582
   0.00212378  0.74313344  0.18397285
   0.18000491  0.50068165  0.17224128
   0.16297283  0.71909790  0.01009331
   0.33536033  0.23952182  0.17622033
   0.50383492  0.00111324  0.17803713
   0.51056128  0.28364887  0.01045183
   0.33546257  0.76091122  0.17997982
   0.47593173  0.50025574  0.17713666
   0.50732274  0.71577490  0.01054215
   0.83981239  0.00166881  0.17525209
   0.83501189  0.25109014  0.00914518
   0.66916893  0.70343107  0.17693878
   0.85182967  0.50187807  0.16655401
   0.83537372  0.75241997  0.00931532
   0.00444660  0.25041158  0.51758349
   0.17764992  0.00152496  0.50775803
   0.16686854  0.29568315  0.34387645
   0.00422887  0.75381284  0.51713589
   0.15901262  0.50143697  0.53312652
   0.16641354  0.70655559  0.34400825
   0.33566512  0.28020405  0.50283707
   0.48560932  0.00193412  0.50970410
   0.50775411  0.28354412  0.34354370
   0.33550925  0.72392456  0.50468678
   0.50650647  0.50153082  0.52685471
   0.50766539  0.71870697  0.34373304
   0.66874843  0.27583294  0.51850469
   0.84179538  0.00230863  0.52054022
   0.83146877  0.27455618  0.34445412
   0.66913764  0.72851048  0.51772629
   0.84841888  0.50257558  0.50095076
   0.83188088  0.73024856  0.34394528
   0.00190525  0.27697155  0.83735164
   0.19957789  0.00092155  0.85197231
   0.19213051  0.23732500  0.67863423
   0.00352664  0.72286405  0.83941040
   0.16944625  0.49712184  0.82512749
   0.18865059  0.76314831  0.67893452
   0.33669934  0.27384433  0.86403553
   0.48307645  0.00122538  0.84906459
   0.47655447  0.24430319  0.67772355
   0.33583081  0.71638648  0.85536660
   0.51553390  0.50020969  0.82719992
   0.48026139  0.75800507  0.67744837
   0.66709117  0.24500940  0.83092651
   0.83315598  0.00132789  0.84016102
   0.83638608  0.29742828  0.67674304
   0.66642725  0.75576871  0.83367005
   0.82298839  0.50155936  0.86064360
   0.83640971  0.70896928  0.67711005
   0.66968349  0.30034267  0.17768182
   0.99924810  0.50262050  0.00919897
   0.33481040  0.50250892  0.01393318
   0.67167815  0.50267467  0.00959029
   0.99662040  0.50117548  0.34082049
   0.33867233  0.50153937  0.33745179
   0.66957878  0.50160079  0.34854873
   0.00099918  0.50411775  0.67087891
   0.33485161  0.00171827  0.66599304
   0.33527185  0.50403212  0.67314470
   0.67001295  0.50427884  0.67523974
   0.16819507  0.24412319  0.17227689
   0.16844062  0.75929454  0.17316703
   0.50630287  0.24106126  0.17340474
   0.50561732  0.76349483  0.17497460
   0.83166344  0.24332349  0.17857397
   0.83143140  0.76026551  0.17857668
   0.16950612  0.75771563  0.50160590
   0.50478873  0.24118295  0.50377122
   0.50508691  0.76365514  0.50488769
   0.83286721  0.23893054  0.50951237
   0.83302526  0.76607314  0.50888784
   0.16588928  0.24857085  0.84097137
   0.16856940  0.76602454  0.84351148
   0.50304148  0.25109386  0.84212390
   0.50082333  0.75926454  0.84525567
   0.83801024  0.24380570  0.83780661
   0.83887418  0.76056833  0.83848002
   0.16989044  0.24679192  0.50128306
   0.33926870  0.04217694  0.94550357
   0.00286690  0.00152583  0.22002886
   0.33473913  0.00147678  0.22820843
   0.84203377  0.00217315  0.00839106
   0.00731625  0.00237238  0.55103188
   0.66535381  0.00054307  0.81168104
Direct configuration=     8
   0.00159335  0.25930092  0.18569137
   0.16558190  0.00084165  0.18860736
   0.15990688  0.27922031  0.01035546
   0.00213409  0.74313998  0.18398633
   0.18001038  0.50067971  0.17223992
   0.16297454  0.71910081  0.01009206
   0.33536499  0.23951668  0.17622403
   0.50383273  0.00111012  0.17803834
   0.51055540  0.28365597  0.01045332
   0.33546424  0.76091485  0.17998475
   0.47592612  0.50025934  0.17715064
   0.50731784  0.71577218  0.01054087
   0.83982371  0.00166642  0.17526176
   0.83502961  0.25108211  0.00914906
   0.66916505  0.70343244  0.17693528
   0.85182740  0.50186825  0.16655782
   0.83539114  0.75242133  0.00931874
   0.00444690  0.25040984  0.51759088
   0.17765703  0.00153200  0.50776193
   0.16687908  0.29567724  0.34388576
   0.00423817  0.75381940  0.51713739
   0.15901302  0.50143426  0.53312722
   0.16641783  0.70656146  0.34402005
   0.33566592  0.28020042  0.50284289
   0.48560492  0.00194115  0.50970624
   0.50775249  0.28354054  0.34354320
   0.33550266  0.72392329  0.50468838
   0.50650453  0.50152828  0.52685743
   0.50766764  0.71870939  0.34373070
   0.66875075  0.27583842  0.51850301
   0.84180080  0.00229927  0.52053872
   0.83146671  0.27455326  0.34446326
   0.66913510  0.72850813  0.51772843
   0.84843314  0.50257109  0.50095491
   0.83188542  0.73024434  0.34395325
   0.00189920  0.27696937  0.83734351
   0.19958252  0.00091706  0.85197125
   0.19214238  0.23732500  0.67863960
   0.00352826  0.72286789  0.83940723
   0.16945971  0.49712272  0.82512689
   0.18866057  0.76314887  0.67893594
   0.33670267  0.27383216  0.86404220
   0.48308544  0.00122139  0.84907495
   0.47655423  0.24430073  0.67772582
   0.33583711  0.71639975  0.85537024
   0.51552492  0.50020300  0.82719961
   0.48026109  0.75801213  0.67745339
   0.66709394  0.24501844  0.83095122
   0.83315558  0.00132680  0.84017627
   0.83638578  0.29742397  0.67675101
   0.66643276  0.75575525  0.83369278
   0.82299861  0.50155413  0.86064911
   0.83640721  0.70897795  0.67711589
   0.66968685  0.30034075  0.17768101
   0.99924670  0.50262019  0.00920221
   0.33481140  0.50250786  0.01393706
   0.67167952  0.50267233  0.00958913
   0.99662140  0.50117416  0.34082156
   0.33867155  0.50153983  0.33745357
   0.66957899  0.50159985  0.34854871
   0.00099671  0.50411641  0.67088063
   0.33485247  0.00171786  0.66599578
   0.33527087  0.50403144  0.67314406
   0.67001190  0.50427765  0.67523819
   0.16819242  0.24412492  0.17228081
   0.16844053  0.75929244  0.17316682
   0.50630243  0.24106148  0.17340445
   0.50561628  0.76349097  0.17497197
   0.83166452  0.24331923  0.17857485
   0.83143463  0.76026702  0.17857694
   0.16950590  0.75771628  0.50160711
   0.50479087  0.24117904  0.50377282
   0.50509020  0.76364973  0.50488969
   0.83286309  0.23893275  0.50951165
   0.83302332  0.76607288  0.50888600
   0.16588739  0.24857004  0.84097697
   0.16856784  0.76602402  0.84351584
   0.50303814  0.25109712  0.84212531
   0.50081992  0.75926064  0.84525689
   0.83800969  0.24380526  0.83780844
   0.83887458  0.76056862  0.83848236
   0.16989075  0.24679135  0.50128694
   0.33926623  0.04216962  0.94551082
   0.00285509  0.00152703  0.22005693
   0.33473892  0.00147305  0.22820706
   0.84210018  0.00216479  0.00839191
   0.00731326  0.00236786  0.55104097
   0.66534922  0.00056395  0.81178936
Direct configuration=     9
   0.00159531  0.25929340  0.18570284
   0.16558639  0.00083988  0.18861022
   0.15990894  0.27921426  0.01035543
   0.00214535  0.74314706  0.18400009
   0.18001568  0.50067720  0.17223878
   0.16297620  0.71910445  0.01009158
   0.33536889  0.23951122  0.17622766
   0.50383068  0.00110749  0.17803946
   0.51054932  0.28366253  0.01045525
   0.33546529  0.76091880  0.17998973
   0.47592071  0.50026264  0.17716463
   0.50731291  0.71577030  0.01054063
   0.83983526  0.00166382  0.17527135
   0.83504762  0.25107364  0.00915284
   0.66916040  0.70343455  0.17693135
   0.85182546  0.50185878  0.16656159
   0.83540870  0.75242355  0.00932258
   0.00444934  0.25040767  0.51759795
   0.17766383  0.00153924  0.50776575
   0.16688951  0.29567085  0.34389477
   0.00424816  0.75382605  0.51713868
   0.15901381  0.50143113  0.53312763
   0.16642204  0.70656755  0.34403187
   0.33566681  0.28019687  0.50284884
   0.48560077  0.00194696  0.50970835
   0.50775050  0.28353632  0.34354347
   0.33549662  0.72392216  0.50468969
   0.50650206  0.50152578  0.52686005
   0.50766986  0.71871243  0.34372951
   0.66875195  0.27584330  0.51850131
   0.84180555  0.00229009  0.52053711
   0.83146503  0.27454988  0.34447320
   0.66913106  0.72850636  0.51773017
   0.84844748  0.50256701  0.50095906
   0.83189040  0.73024032  0.34396168
   0.00189434  0.27696681  0.83733580
   0.19958689  0.00091334  0.85197049
   0.19215402  0.23732521  0.67864402
   0.00353000  0.72287221  0.83940406
   0.16947279  0.49712301  0.82512625
   0.18867044  0.76314925  0.67893781
   0.33670691  0.27381966  0.86404884
   0.48309467  0.00121661  0.84908494
   0.47655407  0.24429846  0.67772799
   0.33584481  0.71641355  0.85537343
   0.51551565  0.50019522  0.82719894
   0.48026078  0.75801955  0.67745866
   0.66709582  0.24502754  0.83097596
   0.83315524  0.00132654  0.84019153
   0.83638519  0.29741935  0.67675852
   0.66643759  0.75574196  0.83371561
   0.82300880  0.50154839  0.86065461
   0.83640478  0.70898692  0.67712150
   0.66968898  0.30033814  0.17767989
   0.99924527  0.50261994  0.00920534
   0.33481237  0.50250686  0.01394085
   0.67168088  0.50266997  0.00958799
   0.99662235  0.50117279  0.34082265
   0.33867079  0.50154037  0.33745536
   0.66957921  0.50159892  0.34854861
   0.00099422  0.50411504  0.67088244
   0.33485325  0.00171739  0.66599859
   0.33526984  0.50403082  0.67314354
   0.67001089  0.50427651  0.67523666
   0.16818961  0.24412680  0.17228467
   0.16844046  0.75929023  0.17316630
   0.50630243  0.24106197  0.17340404
   0.50561552  0.76348668  0.17496922
   0.83166522  0.24331512  0.17857584
   0.83143747  0.76026832  0.17857724
   0.16950564  0.75771701  0.50160862
   0.50479339  0.24117533  0.50377420
   0.50509385  0.76364416  0.50489147