unknown system                          
           1
    11.636000    0.000000    0.000000
     0.000000    7.905000    0.000000
     0.000000    0.000000   11.636000
   O    La   Ti   Li
    54    10    18     6
Direct configuration=     1
   0.00144080  0.26060309  0.24232195
   0.16341723  0.00066549  0.24353554
   0.15831725  0.27374829  0.06285672
   0.00181542  0.74123014  0.24053857
   0.17918597  0.50030020  0.22343884
   0.16085537  0.72338350  0.06284473
   0.33357040  0.23975562  0.23115988
   0.50196640  0.00085133  0.22754787
   0.50464855  0.28796707  0.06409382
   0.33368203  0.76018670  0.23445274
   0.47643435  0.50040690  0.23269061
   0.50235064  0.71130523  0.06381366
   0.84363463  0.00157338  0.22733690
   0.84409761  0.25275940  0.06336943
   0.66818148  0.70731293  0.22627844
   0.84934982  0.50176033  0.22153066
   0.84358477  0.75076554  0.06341049
   0.00259592  0.24945513  0.57280235
   0.17515128  0.00163504  0.56107932
   0.16613415  0.29732159  0.39796222
   0.00233384  0.75512419  0.57203184
   0.15804542  0.50155338  0.58747517
   0.16569442  0.70476398  0.39799064
   0.33479118  0.27673633  0.55724177
   0.48520757  0.00172114  0.56063746
   0.50709639  0.28281482  0.39593599
   0.33451599  0.72753343  0.55887688
   0.50101900  0.50183658  0.58132584
   0.50715300  0.71962476  0.39609159
   0.66699258  0.28172233  0.56890299
   0.83954633  0.00250799  0.57038678
   0.82971878  0.27450566  0.39714428
   0.66739417  0.72336494  0.56839557
   0.84959806  0.50269903  0.55559251
   0.83000524  0.73025910  0.39656210
   0.00032939  0.27331181  0.88645974
   0.19914648  0.00109616  0.90354531
   0.19208811  0.23837744  0.73122667
   0.00214009  0.72631786  0.88915554
   0.16549450  0.49713181  0.88024338
   0.18870950  0.76245145  0.73173212
   0.33585777  0.27725414  0.91437125
   0.48101593  0.00118769  0.91095993
   0.48020774  0.24011421  0.73115866
   0.33483219  0.71270702  0.90638534
   0.51738602  0.49976864  0.87773882
   0.48286003  0.76168447  0.73143584
   0.66640035  0.24306817  0.89986666
   0.83392364  0.00148702  0.90138515
   0.83000967  0.29428548  0.73004974
   0.66580725  0.75769016  0.90053065
   0.82309701  0.50142611  0.91274315
   0.83091461  0.71199129  0.73037002
   0.66868969  0.29587334  0.22697131
   0.99585557  0.50319563  0.06011339
   0.33271409  0.50263448  0.06643073
   0.66802045  0.50218040  0.05849687
   0.99464147  0.50115025  0.39229544
   0.33714858  0.50140098  0.39011257
   0.66819751  0.50138394  0.39642224
   0.99701677  0.50436473  0.72329001
   0.33238851  0.00183168  0.71656918
   0.33284814  0.50408435  0.72600346
   0.66714570  0.50489904  0.72428167
   0.16589104  0.24414374  0.22502967
   0.16624532  0.75946417  0.22583244
   0.50360737  0.24081834  0.22479145
   0.50304094  0.76272059  0.22542598
   0.83038328  0.24270317  0.22828229
   0.83001715  0.76091718  0.22851706
   0.16727688  0.75741663  0.55486293
   0.50338023  0.24047034  0.55484555
   0.50359707  0.76365026  0.55537078
   0.83050076  0.23903567  0.55965723
   0.83078651  0.76642764  0.55901044
   0.16280722  0.24870511  0.89303925
   0.16597275  0.76651176  0.89585059
   0.50076755  0.25016381  0.89286260
   0.49822702  0.76064166  0.89556500
   0.83424862  0.24220313  0.88855911
   0.83502002  0.76246487  0.88940680
   0.16754514  0.24736123  0.55467440
   0.33613975  0.04724961  0.99991761
   0.00217477  0.00174897  0.28748330
   0.33302673  0.00107207  0.28212042
   0.88365803  0.00236460  0.06168620
   0.00486067  0.00259676  0.60736429
   0.66215622  0.00129854  0.94330045
Direct configuration=     2
   0.00144061  0.26060286  0.24232702
   0.16341767  0.00066583  0.24353921
   0.15831784  0.27374801  0.06286139
   0.00181473  0.74123237  0.24054416
   0.17918432  0.50030041  0.22344281
   0.16085420  0.72338395  0.06284829
   0.33356997  0.23975627  0.23116571
   0.50196501  0.00085182  0.22755223
   0.50464770  0.28796966  0.06409778
   0.33368072  0.76018611  0.23445713
   0.47643473  0.50040681  0.23269546
   0.50235055  0.71130348  0.06381783
   0.84363497  0.00157417  0.22734136
   0.84409820  0.25276192  0.06337470
   0.66818185  0.70731280  0.22628287
   0.84935016  0.50176065  0.22153521
   0.84358485  0.75076604  0.06341505
   0.00259540  0.24945715  0.57280735
   0.17515072  0.00163513  0.56108392
   0.16613428  0.29732349  0.39796696
   0.00233384  0.75512355  0.57203625
   0.15804496  0.50155349  0.58747998
   0.16569457  0.70476343  0.39799482
   0.33479129  0.27673730  0.55724597
   0.48520752  0.00172109  0.56064254
   0.50709570  0.28281595  0.39594061
   0.33451577  0.72753347  0.55888094
   0.50101940  0.50183600  0.58133058
   0.50715214  0.71962499  0.39609685
   0.66699325  0.28172272  0.56890702
   0.83954685  0.00250872  0.57039272
   0.82971964  0.27450683  0.39714938
   0.66739441  0.72336540  0.56840014
   0.84959844  0.50270024  0.55559609
   0.83000526  0.73026085  0.39656672
   0.00033005  0.27331420  0.88646480
   0.19914689  0.00109677  0.90355017
   0.19208741  0.23837675  0.73122979
   0.00214067  0.72631654  0.88915961
   0.16549461  0.49713249  0.88024825
   0.18870882  0.76245153  0.73173658
   0.33585824  0.27725346  0.91437709
   0.48101765  0.00118783  0.91096572
   0.48020925  0.24011336  0.73116349
   0.33483320  0.71270600  0.90639165
   0.51738659  0.49976912  0.87774365
   0.48286013  0.76168495  0.73144075
   0.66640053  0.24307010  0.89987417
   0.83392402  0.00148812  0.90139089
   0.83000963  0.29428763  0.73005344
   0.66580742  0.75768860  0.90053643
   0.82309740  0.50142693  0.91274860
   0.83091466  0.71199227  0.73037429
   0.66869028  0.29587266  0.22697577
   0.99585526  0.50319535  0.06011799
   0.33271388  0.50263372  0.06643531
   0.66802043  0.50218055  0.05850176
   0.99464128  0.50115110  0.39229979
   0.33714818  0.50140122  0.39011701
   0.66819717  0.50138439  0.39642679
   0.99701655  0.50436473  0.72329449
   0.33238902  0.00183162  0.71657380
   0.33284790  0.50408422  0.72600777
   0.66714560  0.50489928  0.72428623
   0.16589155  0.24414347  0.22503446
   0.16624439  0.75946294  0.22583627
   0.50360661  0.24081906  0.22479567
   0.50304031  0.76271992  0.22543105
   0.83038398  0.24270375  0.22828741
   0.83001641  0.76091829  0.22852048
   0.16727704  0.75741611  0.55486789
   0.50338013  0.24047037  0.55485002
   0.50359634  0.76364991  0.55537599
   0.83050070  0.23903540  0.55966233
   0.83078564  0.76642777  0.55901425
   0.16280797  0.24870556  0.89304290
   0.16597337  0.76651104  0.89585455
   0.50076773  0.25016460  0.89286776
   0.49822757  0.76064138  0.89556973
   0.83424908  0.24220430  0.88856335
   0.83502042  0.76246436  0.88941064
   0.16754491  0.24736120  0.55467852
   0.33614084  0.04725014  0.99992389
   0.00217456  0.00175220  0.28748595
   0.33302663  0.00106969  0.28212387
   0.88365786  0.00236517  0.06169132
   0.00486154  0.00259619  0.60737005
   0.66215723  0.00129942  0.94330649
Direct configuration=     3
   0.00144040  0.26060282  0.24233219
   0.16341808  0.00066635  0.24354306
   0.15831844  0.27374805  0.06286608
   0.00181389  0.74123445  0.24054982
   0.17918260  0.50030046  0.22344702
   0.16085301  0.72338403  0.06285188
   0.33356953  0.23975705  0.23117174
   0.50196347  0.00085246  0.22755667
   0.50464681  0.28797267  0.06410191
   0.33367943  0.76018531  0.23446171
   0.47643508  0.50040663  0.23270053
   0.50235045  0.71130135  0.06382209
   0.84363544  0.00157502  0.22734576
   0.84409889  0.25276464  0.06338009
   0.66818229  0.70731238  0.22628732
   0.84935051  0.50176100  0.22153984
   0.84358500  0.75076633  0.06341961
   0.00259479  0.24945939  0.57281242
   0.17515012  0.00163536  0.56108867
   0.16613442  0.29732577  0.39797153
   0.00233374  0.75512266  0.57204074
   0.15804437  0.50155351  0.58748484
   0.16569470  0.70476247  0.39799890
   0.33479126  0.27673859  0.55725023
   0.48520730  0.00172105  0.56064775
   0.50709497  0.28281752  0.39594486
   0.33451547  0.72753317  0.55888504
   0.50101972  0.50183537  0.58133546
   0.50715119  0.71962474  0.39610179
   0.66699414  0.28172358  0.56891105
   0.83954746  0.00250951  0.57039869
   0.82972055  0.27450827  0.39715442
   0.66739486  0.72336540  0.56840471
   0.84959890  0.50270141  0.55559979
   0.83000535  0.73026232  0.39657133
   0.00033056  0.27331715  0.88646987
   0.19914746  0.00109769  0.90355499
   0.19208672  0.23837627  0.73123277
   0.00214115  0.72631467  0.88916372
   0.16549469  0.49713332  0.88025314
   0.18870819  0.76245142  0.73174090
   0.33585851  0.27725311  0.91438298
   0.48101926  0.00118798  0.91097154
   0.48021059  0.24011267  0.73116813
   0.33483403  0.71270460  0.90639795
   0.51738729  0.49976980  0.87774848
   0.48286010  0.76168524  0.73144558
   0.66640092  0.24307235  0.89988180
   0.83392447  0.00148928  0.90139680
   0.83000967  0.29429024  0.73005700
   0.66580780  0.75768680  0.90054234
   0.82309780  0.50142773  0.91275413
   0.83091478  0.71199285  0.73037846
   0.66869090  0.29587221  0.22698026
   0.99585496  0.50319506  0.06012255
   0.33271362  0.50263296  0.06643985
   0.66802047  0.50218070  0.05850661
   0.99464107  0.50115195  0.39230413
   0.33714777  0.50140146  0.39012146
   0.66819686  0.50138484  0.39643134
   0.99701634  0.50436473  0.72329898
   0.33238953  0.00183156  0.71657842
   0.33284766  0.50408409  0.72601209
   0.66714552  0.50489953  0.72429078
   0.16589201  0.24414326  0.22503924
   0.16624345  0.75946161  0.22584011
   0.50360584  0.24081973  0.22479987
   0.50303969  0.76271930  0.22543618
   0.83038480  0.24270429  0.22829260
   0.83001568  0.76091940  0.22852396
   0.16727722  0.75741557  0.55487292
   0.50337998  0.24047035  0.55485461
   0.50359559  0.76364963  0.55538127
   0.83050067  0.23903511  0.55966741
   0.83078475  0.76642785  0.55901813
   0.16280877  0.24870602  0.89304657
   0.16597406  0.76651032  0.89585849
   0.50076788  0.25016525  0.89287288
   0.49822808  0.76064109  0.89557447
   0.83424954  0.24220550  0.88856756
   0.83502082  0.76246385  0.88941447
   0.16754469  0.24736114  0.55468271
   0.33614181  0.04725069  0.99993011
   0.00217426  0.00175550  0.28748854
   0.33302657  0.00106741  0.28212718
   0.88365767  0.00236576  0.06169635
   0.00486233  0.00259565  0.60737574
   0.66215827  0.00130044  0.94331368
Direct configuration=     4
   0.00144019  0.26060299  0.24233736
   0.16341846  0.00066691  0.24354684
   0.15831901  0.27374819  0.06287077
   0.00181297  0.74123632  0.24055540
   0.17918090  0.50030036  0.22345133
   0.16085175  0.72338400  0.06285558
   0.33356913  0.23975791  0.23117784
   0.50196195  0.00085311  0.22756107
   0.50464596  0.28797593  0.06410618
   0.33367825  0.76018438  0.23446633
   0.47643529  0.50040635  0.23270562
   0.50235046  0.71129906  0.06382649
   0.84363581  0.00157585  0.22735009
   0.84409959  0.25276752  0.06338548
   0.66818278  0.70731188  0.22629176
   0.84935101  0.50176139  0.22154421
   0.84358516  0.75076639  0.06342409
   0.00259422  0.24946165  0.57281732
   0.17514953  0.00163565  0.56109329
   0.16613456  0.29732809  0.39797609
   0.00233362  0.75512173  0.57204511
   0.15804372  0.50155342  0.58748976
   0.16569477  0.70476144  0.39800299
   0.33479127  0.27674020  0.55725432
   0.48520712  0.00172100  0.56065278
   0.50709426  0.28281929  0.39594902
   0.33451525  0.72753252  0.55888903
   0.50101996  0.50183468  0.58134025
   0.50715026  0.71962423  0.39610663
   0.66699497  0.28172461  0.56891496
   0.83954794  0.00251027  0.57040446
   0.82972141  0.27450966  0.39715943
   0.66739527  0.72336527  0.56840918
   0.84959944  0.50270255  0.55560330
   0.83000542  0.73026382  0.39657599
   0.00033108  0.27332025  0.88647504
   0.19914787  0.00109864  0.90355988
   0.19208598  0.23837617  0.73123576
   0.00214163  0.72631273  0.88916792
   0.16549483  0.49713397  0.88025784
   0.18870755  0.76245090  0.73174513
   0.33585869  0.27725315  0.91438902
   0.48102106  0.00118800  0.91097741
   0.48021197  0.24011232  0.73117271
   0.33483471  0.71270284  0.90640432
   0.51738823  0.49977052  0.87775329
   0.48286014  0.76168517  0.73145033
   0.66640142  0.24307475  0.89988952
   0.83392495  0.00149042  0.90140271
   0.83000967  0.29429294  0.73006066
   0.66580832  0.75768495  0.90054833
   0.82309807  0.50142851  0.91275988
   0.83091489  0.71199340  0.73038273
   0.66869159  0.29587182  0.22698479
   0.99585461  0.50319476  0.06012716
   0.33271339  0.50263219  0.06644441
   0.66802053  0.50218085  0.05851149
   0.99464086  0.50115280  0.39230846
   0.33714737  0.50140170  0.39012592
   0.66819655  0.50138528  0.39643589
   0.99701616  0.50436475  0.72330344
   0.33239003  0.00183150  0.71658300
   0.33284742  0.50408395  0.72601640
   0.66714542  0.50489977  0.72429533
   0.16589240  0.24414302  0.22504400
   0.16624249  0.75946029  0.22584394
   0.50360507  0.24082038  0.22480404
   0.50303908  0.76271872  0.22544131
   0.83038569  0.24270476  0.22829781
   0.83001492  0.76092053  0.22852748
   0.16727738  0.75741504  0.55487792
   0.50337981  0.24047035  0.55485916
   0.50359488  0.76364934  0.55538646
   0.83050067  0.23903469  0.55967238
   0.83078383  0.76642800  0.55902200
   0.16280957  0.24870658  0.89305028
   0.16597479  0.76650965  0.89586243
   0.50076805  0.25016579  0.89287797
   0.49822859  0.76064085  0.89557926
   0.83424997  0.24220666  0.88857176
   0.83502123  0.76246343  0.88941832
   0.16754444  0.24736104  0.55468687
   0.33614267  0.04725131  0.99993650
   0.00217390  0.00175882  0.28749116
   0.33302650  0.00106522  0.28213046
   0.88365755  0.00236638  0.06170137
   0.00486309  0.00259514  0.60738137
   0.66215926  0.00130153  0.94332210
Direct configuration=     5
   0.00144017  0.26060323  0.24234248
   0.16341887  0.00066730  0.24355064
   0.15831962  0.27374830  0.06287524
   0.00181226  0.74123814  0.24056090
   0.17917923  0.50030038  0.22345568
   0.16085054  0.72338404  0.06285929
   0.33356878  0.23975876  0.23118392
   0.50196029  0.00085362  0.22756545
   0.50464508  0.28797920  0.06411018
   0.33367713  0.76018339  0.23447093
   0.47643545  0.50040615  0.23271073
   0.50235043  0.71129688  0.06383076
   0.84363626  0.00157665  0.22735434
   0.84410031  0.25277034  0.06339070
   0.66818305  0.70731137  0.22629621
   0.84935156  0.50176188  0.22154848
   0.84358536  0.75076646  0.06342841
   0.00259370  0.24946398  0.57282230
   0.17514906  0.00163587  0.56109814
   0.16613473  0.29733047  0.39798066
   0.00233361  0.75512068  0.57204952
   0.15804302  0.50155340  0.58749473
   0.16569484  0.70476040  0.39800712
   0.33479136  0.27674159  0.55725856
   0.48520678  0.00172087  0.56065802
   0.50709356  0.28282102  0.39595322
   0.33451510  0.72753207  0.55889310
   0.50102021  0.50183406  0.58134518
   0.50714928  0.71962374  0.39611145
   0.66699568  0.28172570  0.56891894
   0.83954846  0.00251099  0.57041026
   0.82972223  0.27451107  0.39716454
   0.66739556  0.72336511  0.56841368
   0.84959999  0.50270369  0.55560689
   0.83000548  0.73026531  0.39658081
   0.00033162  0.27332335  0.88648017
   0.19914846  0.00109977  0.90356469
   0.19208531  0.23837588  0.73123894
   0.00214217  0.72631082  0.88917211
   0.16549498  0.49713432  0.88026255
   0.18870704  0.76245058  0.73174941
   0.33585903  0.27725298  0.91439492
   0.48102280  0.00118802  0.91098319
   0.48021327  0.24011174  0.73117758
   0.33483547  0.71270134  0.90641061
   0.51738919  0.49977112  0.87775810
   0.48286009  0.76168531  0.73145528
   0.66640171  0.24307718  0.89989722
   0.83392544  0.00149163  0.90140865
   0.83000969  0.29429564  0.73006448
   0.66580869  0.75768319  0.90055432
   0.82309829  0.50142923  0.91276554
   0.83091502  0.71199397  0.73038712
   0.66869212  0.29587146  0.22698931
   0.99585430  0.50319445  0.06013178
   0.33271312  0.50263142  0.06644901
   0.66802061  0.50218100  0.05851635
   0.99464063  0.50115366  0.39231277
   0.33714696  0.50140194  0.39013033
   0.66819625  0.50138573  0.39644046
   0.99701602  0.50436476  0.72330790
   0.33239055  0.00183143  0.71658758
   0.33284720  0.50408382  0.72602073
   0.66714528  0.50490002  0.72429992
   0.16589274  0.24414301  0.22504876
   0.16624151  0.75945874  0.22584777
   0.50360426  0.24082119  0.22480818
   0.50303845  0.76271803  0.22544647
   0.83038662  0.24270533  0.22830303
   0.83001421  0.76092156  0.22853100
   0.16727755  0.75741443  0.55488292
   0.50337959  0.24047048  0.55486371
   0.50359415  0.76364897  0.55539163
   0.83050071  0.23903437  0.55967724
   0.83078291  0.76642801  0.55902588
   0.16281037  0.24870743  0.89305402
   0.16597557  0.76650886  0.89586635
   0.50076821  0.25016638  0.89288303
   0.49822910  0.76064051  0.89558408
   0.83425041  0.24220797  0.88857596
   0.83502162  0.76246289  0.88942221
   0.16754419  0.24736102  0.55469103
   0.33614342  0.04725203  0.99994281
   0.00217354  0.00176205  0.28749373
   0.33302641  0.00106307  0.28213362
   0.88365744  0.00236705  0.06170635
   0.00486376  0.00259467  0.60738688
   0.66216021  0.00130281  0.94333164
Direct configuration=     6
   0.00144026  0.26060331  0.24234759
   0.16341928  0.00066763  0.24355441
   0.15832026  0.27374809  0.06287958
   0.00181163  0.74124013  0.24056635
   0.17917761  0.50030043  0.22346004
   0.16084938  0.72338448  0.06286300
   0.33356850  0.23975941  0.23118999
   0.50195863  0.00085406  0.22756980
   0.50464420  0.28798230  0.06411412
   0.33367613  0.76018254  0.23447552
   0.47643559  0.50040601  0.23271587
   0.50235042  0.71129502  0.06383503
   0.84363667  0.00157740  0.22735854
   0.84410106  0.25277296  0.06339577
   0.66818320  0.70731113  0.22630072
   0.84935208  0.50176247  0.22155272
   0.84358558  0.75076666  0.06343256
   0.00259327  0.24946616  0.57282726
   0.17514860  0.00163608  0.56110301
   0.16613491  0.29733272  0.39798519
   0.00233366  0.75511974  0.57205389
   0.15804229  0.50155336  0.58749967
   0.16569490  0.70475955  0.39801126
   0.33479152  0.27674280  0.55726283
   0.48520648  0.00172068  0.56066327
   0.50709293  0.28282255  0.39595730
   0.33451502  0.72753178  0.55889717
   0.50102050  0.50183349  0.58135012
   0.50714834  0.71962345  0.39611614
   0.66699628  0.28172663  0.56892290
   0.83954892  0.00251165  0.57041598
   0.82972295  0.27451229  0.39716959
   0.66739574  0.72336516  0.56841812
   0.84960050  0.50270485  0.55561046
   0.83000546  0.73026699  0.39658563
   0.00033219  0.27332617  0.88648525
   0.19914898  0.00110096  0.90356950
   0.19208462  0.23837544  0.73124224
   0.00214275  0.72630923  0.88917629
   0.16549512  0.49713468  0.88026716
   0.18870657  0.76245042  0.73175371
   0.33585934  0.27725256  0.91440073
   0.48102457  0.00118798  0.91098890
   0.48021457  0.24011100  0.73118249
   0.33483615  0.71270015  0.90641683
   0.51739022  0.49977178  0.87776284
   0.48286003  0.76168560  0.73146022
   0.66640195  0.24307950  0.89990485
   0.83392598  0.00149285  0.90141448
   0.83000973  0.29429812  0.73006838
   0.66580903  0.75768163  0.90056027
   0.82309848  0.50142991  0.91277109
   0.83091516  0.71199479  0.73039156
   0.66869255  0.29587088  0.22699389
   0.99585407  0.50319415  0.06013634
   0.33271284  0.50263070  0.06645347
   0.66802063  0.50218116  0.05852124
   0.99464045  0.50115455  0.39231713
   0.33714651  0.50140223  0.39013487
   0.66819594  0.50138620  0.39644506
   0.99701586  0.50436478  0.72331240
   0.33239108  0.00183138  0.71659219
   0.33284698  0.50408370  0.72602512
   0.66714518  0.50490027  0.72430452
   0.16589297  0.24414285  0.22505348
   0.16624049  0.75945729  0.22585158
   0.50360351  0.24082179  0.22481232
   0.50303787  0.76271754  0.22545163
   0.83038753  0.24270575  0.22830830
   0.83001347  0.76092274  0.22853461
   0.16727767  0.75741392  0.55488791
   0.50337938  0.24047046  0.55486831
   0.50359348  0.76364876  0.55539677
   0.83050077  0.23903388  0.55968206
   0.83078195  0.76642815  0.55902980
   0.16281114  0.24870814  0.89305783
   0.16597637  0.76650825  0.89587031
   0.50076838  0.25016671  0.89288805
   0.49822959  0.76064030  0.89558896
   0.83425087  0.24220917  0.88858012
   0.83502206  0.76246250  0.88942606
   0.16754389  0.24736087  0.55469520
   0.33614403  0.04725275  0.99994911
   0.00217316  0.00176517  0.28749632
   0.33302632  0.00106099  0.28213668
   0.88365738  0.00236776  0.06171123
   0.00486434  0.00259422  0.60739234
   0.66216116  0.00130412  0.94334228
Direct configuration=     7
   0.00144048  0.26060341  0.24235268
   0.16341970  0.00066778  0.24355816
   0.15832092  0.27374774  0.06288376
   0.00181114  0.74124211  0.24057174
   0.17917598  0.50030054  0.22346453
   0.16084825  0.72338505  0.06286671
   0.33356833  0.23975999  0.23119608
   0.50195696  0.00085433  0.22757411
   0.50464335  0.28798535  0.06411795
   0.33367529  0.76018169  0.23448013
   0.47643581  0.50040591  0.23272105
   0.50235045  0.71129324  0.06383927
   0.84363704  0.00157808  0.22736268
   0.84410178  0.25277543  0.06340073
   0.66818315  0.70731091  0.22630524
   0.84935256  0.50176318  0.22155693
   0.84358578  0.75076692  0.06343662
   0.00259290  0.24946831  0.57283217
   0.17514823  0.00163622  0.56110791
   0.16613512  0.29733489  0.39798977
   0.00233379  0.75511880  0.57205820
   0.15804159  0.50155335  0.58750455
   0.16569497  0.70475878  0.39801551
   0.33479176  0.27674393  0.55726707
   0.48520614  0.00172040  0.56066852
   0.50709234  0.28282403  0.39596140
   0.33451503  0.72753154  0.55890118
   0.50102077  0.50183297  0.58135499
   0.50714738  0.71962316  0.39612078
   0.66699675  0.28172761  0.56892683
   0.83954927  0.00251223  0.57042160
   0.82972359  0.27451342  0.39717469
   0.66739581  0.72336520  0.56842249
   0.84960096  0.50270602  0.55561404
   0.83000539  0.73026873  0.39659054
   0.00033269  0.27332890  0.88649030
   0.19914952  0.00110209  0.90357421
   0.19208395  0.23837497  0.73124563
   0.00214337  0.72630774  0.88918047
   0.16549532  0.49713472  0.88027173
   0.18870617  0.76245031  0.73175798
   0.33585984  0.27725211  0.91440645
   0.48102640  0.00118788  0.91099455
   0.48021586  0.24011022  0.73118753
   0.33483690  0.71269907  0.90642298
   0.51739131  0.49977234  0.87776762
   0.48285999  0.76168589  0.73146521
   0.66640207  0.24308181  0.89991243
   0.83392654  0.00149410  0.90142022
   0.83000976  0.29430050  0.73007242
   0.66580928  0.75768020  0.90056621
   0.82309859  0.50143051  0.91277651
   0.83091527  0.71199566  0.73039607
   0.66869283  0.29587027  0.22699848
   0.99585379  0.50319383  0.06014097
   0.33271256  0.50262995  0.06645803
   0.66802072  0.50218132  0.05852613
   0.99464022  0.50115542  0.39232144
   0.33714607  0.50140250  0.39013930
   0.66819565  0.50138666  0.39644965
   0.99701571  0.50436479  0.72331687
   0.33239160  0.00183133  0.71659677
   0.33284677  0.50408357  0.72602949
   0.66714506  0.50490053  0.72430913
   0.16589314  0.24414280  0.22505818
   0.16623943  0.75945573  0.22585537
   0.50360275  0.24082248  0.22481643
   0.50303729  0.76271701  0.22545679
   0.83038845  0.24270623  0.22831355
   0.83001275  0.76092385  0.22853823
   0.16727775  0.75741337  0.55489287
   0.50337916  0.24047051  0.55487283
   0.50359283  0.76364850  0.55540186
   0.83050086  0.23903339  0.55968676
   0.83078099  0.76642825  0.55903372
   0.16281189  0.24870904  0.89306169
   0.16597719  0.76650764  0.89587429
   0.50076856  0.25016702  0.89289306
   0.49823008  0.76064009  0.89559389
   0.83425134  0.24221046  0.88858429
   0.83502250  0.76246208  0.88942994
   0.16754356  0.24736073  0.55469936
   0.33614455  0.04725363  0.99995552
   0.00217278  0.00176819  0.28749894
   0.33302619  0.00105899  0.28213970
   0.88365739  0.00236851  0.06171609
   0.00486489  0.00259380  0.60739775
   0.66216210  0.00130549  0.94335403
Direct configuration=     8
   0.00144079  0.26060337  0.24235778
   0.16342011  0.00066784  0.24356189
   0.15832155  0.27374714  0.06288775
   0.00181074  0.74124422  0.24057709
   0.17917431  0.50030076  0.22346899
   0.16084713  0.72338600  0.06287036
   0.33356819  0.23976024  0.23120215
   0.50195531  0.00085450  0.22757839
   0.50464255  0.28798828  0.06412167
   0.33367451  0.76018108  0.23448473
   0.47643608  0.50040591  0.23272624
   0.50235054  0.71129176  0.06384347
   0.84363736  0.00157872  0.22736678
   0.84410253  0.25277767  0.06340552
   0.66818301  0.70731094  0.22630982
   0.84935302  0.50176401  0.22156112
   0.84358605  0.75076735  0.06344050
   0.00259254  0.24947032  0.57283711
   0.17514791  0.00163632  0.56111290
   0.16613528  0.29733697  0.39799439
   0.00233394  0.75511792  0.57206251
   0.15804082  0.50155337  0.58750943
   0.16569498  0.70475818  0.39801988
   0.33479209  0.27674488  0.55727137
   0.48520582  0.00172008  0.56067383
   0.50709188  0.28282525  0.39596555
   0.33451511  0.72753144  0.55890521
   0.50102111  0.50183252  0.58135991
   0.50714652  0.71962312  0.39612542
   0.66699713  0.28172845  0.56893076
   0.83954954  0.00251277  0.57042717
   0.82972411  0.27451439  0.39717986
   0.66739581  0.72336544  0.56842682
   0.84960138  0.50270721  0.55561765
   0.83000523  0.73027061  0.39659556
   0.00033322  0.27333145  0.88649525
   0.19915004  0.00110318  0.90357885
   0.19208335  0.23837426  0.73124911
   0.00214410  0.72630654  0.88918458
   0.16549550  0.49713485  0.88027619
   0.18870588  0.76245044  0.73176226
   0.33586027  0.27725148  0.91441202
   0.48102817  0.00118769  0.91100008
   0.48021708  0.24010919  0.73119254
   0.33483750  0.71269825  0.90642903
   0.51739250  0.49977299  0.87777223
   0.48285987  0.76168641  0.73147015
   0.66640217  0.24308404  0.89991991
   0.83392720  0.00149531  0.90142583
   0.83000979  0.29430278  0.73007641
   0.66580951  0.75767895  0.90057208
   0.82309867  0.50143109  0.91278177
   0.83091539  0.71199665  0.73040051
   0.66869305  0.29586945  0.22700311
   0.99585361  0.50319352  0.06014552
   0.33271227  0.50262926  0.06646241
   0.66802072  0.50218149  0.05853103
   0.99464007  0.50115634  0.39232581
   0.33714559  0.50140282  0.39014389
   0.66819536  0.50138714  0.39645426
   0.99701557  0.50436482  0.72332138
   0.33239215  0.00183127  0.71660140
   0.33284658  0.50408345  0.72603392
   0.66714494  0.50490078  0.72431377
   0.16589323  0.24414266  0.22506286
   0.16623836  0.75945423  0.22585916
   0.50360204  0.24082306  0.22482053
   0.50303675  0.76271659  0.22546195
   0.83038934  0.24270661  0.22831881
   0.83001201  0.76092505  0.22854190
   0.16727783  0.75741285  0.55489780
   0.50337893  0.24047048  0.55487735
   0.50359222  0.76364833  0.55540692
   0.83050096  0.23903276  0.55969140
   0.83077999  0.76642844  0.55903768
   0.16281264  0.24870991  0.89306565
   0.16597803  0.76650710  0.89587832
   0.50076876  0.25016709  0.89289801
   0.49823058  0.76063991  0.89559885
   0.83425180  0.24221166  0.88858848
   0.83502296  0.76246179  0.88943384
   0.16754323  0.24736052  0.55470353
   0.33614496  0.04725451  0.99996199
   0.00217237  0.00177107  0.28750159
   0.33302606  0.00105705  0.28214263
   0.88365749  0.00236930  0.06172089
   0.00486537  0.00259340  0.60740315
   0.66216303  0.00130689  0.94336690
Direct configuration=     9
   0.00144120  0.26060322  0.24236291
   0.16342049  0.00066775  0.24356571
   0.15832224  0.27374623  0.06289150
   0.00181046  0.74124647  0.24058243
   0.17917276  0.50030103  0.22347348
   0.16084608  0.72338726  0.06287394
   0.33356819  0.23976044  0.23120822
   0.50195361  0.00085448  0.22758270
   0.50464174  0.28799108  0.06412531
   0.33367394  0.76018048  0.23448935
   0.47643634  0.50040596  0.23273152
   0.50235064  0.71129044  0.06384771
   0.84363776  0.00157930  0.22737087
   0.84410326  0.25277972  0.06341005
   0.66818259  0.70731089  0.22631452
   0.84935342  0.50176493  0.22156535
   0.84358630  0.75076788  0.06344423
   0.00259207  0.24947211  0.57284204
   0.17514760  0.00163635  0.56111792
   0.16613546  0.29733896  0.39799889
   0.00233402  0.75511722  0.57206678
   0.15804002  0.50155341  0.58751431
   0.16569501  0.70475770  0.39802422
   0.33479256  0.27674561  0.55727569
   0.48520543  0.00171971  0.56067912
   0.50709150  0.28282647  0.39596963
   0.33451533  0.72753154  0.55890924
   0.50102150  0.50183210  0.58136475
   0.50714569  0.71962306  0.39612988
   0.66699745  0.28172936  0.56893464
   0.83954985  0.00251324  0.57043268
   0.82972454  0.27451532  0.39718516
   0.66739576  0.72336565  0.56843107
   0.84960170  0.50270841  0.55562127
   0.83000501  0.73027253  0.39660074
   0.00033358  0.27333371  0.88650013
   0.19915075  0.00110440  0.90358354
   0.19208277  0.23837328  0.73125271
   0.00214485  0.72630560  0.88918865
   0.16549569  0.49713465  0.88028057
   0.18870565  0.76245084  0.73176654
   0.33586081  0.27725049  0.91441753
   0.48102994  0.00118765  0.91100568
   0.48021828  0.24010799  0.73119756
   0.33483806  0.71269779  0.90643501
   0.51739375  0.49977347  0.87777683
   0.48285976  0.76168705  0.73147502
   0.66640224  0.24308605  0.89992734
   0.83392784  0.00149669  0.90143141
   0.83000983  0.29430498  0.73008046
   0.66580972  0.75767801  0.90057794
   0.82309871  0.50143150  0.91278692
   0.83091550  0.71199766  0.73040486
   0.66869303  0.29586877  0.22700784
   0.99585329  0.50319316  0.06015019
   0.33271202  0.50262849  0.06646700
   0.66802082  0.50218163  0.05853599
   0.99463979  0.50115722  0.39233010
   0.33714520  0.50140309  0.39014829
   0.66819508  0.50138759  0.39645884
   0.99701539  0.50436484  0.72332581
   0.33239269  0.00183126  0.71660593
   0.33284641  0.50408329  0.72603828
   0.66714485  0.50490103  0.72431838
   0.16589325  0.24414266  0.22506755
   0.16623726  0.75945257  0.22586299
   0.50360130  0.24082383  0.22482461
   0.50303618  0.76271602  0.22546713
   0.83039025  0.24270714  0.22832407
   0.83001130  0.76092611  0.22854558
   0.16727790  0.75741227  0.55490270
   0.50337866  0.24047056  0.55488180
   0.50359160  0.76364801  0.55541187