unknown system                          
           1
    11.636000    0.000000    0.000000
     0.000000    7.905000    0.000000
     0.000000    0.000000   11.636000
   O    La   Ti   Li
    54    10    18     6
Direct configuration=     1
   0.00279738  0.25965026  0.19093614
   0.16555334  0.00051671  0.19301150
   0.15974042  0.27548830  0.01260724
   0.00328995  0.74194071  0.18906964
   0.18051226  0.50019404  0.17351329
   0.16280695  0.72188139  0.01255618
   0.33553482  0.23952681  0.17939173
   0.50380820  0.00070233  0.17817495
   0.50827613  0.28703483  0.01323117
   0.33572905  0.76004078  0.18302073
   0.47745709  0.50000897  0.18178397
   0.50570751  0.71201311  0.01313851
   0.84368419  0.00138395  0.17722495
   0.84259309  0.25164344  0.01219037
   0.66995575  0.70503258  0.17681670
   0.85193072  0.50155286  0.17000349
   0.84237888  0.75152030  0.01229162
   0.00472535  0.24938507  0.52147611
   0.17723113  0.00135157  0.51042813
   0.16792442  0.29675662  0.34707624
   0.00444475  0.75446101  0.52071759
   0.15991727  0.50125230  0.53658877
   0.16750608  0.70490492  0.34718426
   0.33647307  0.27714194  0.50605805
   0.48716067  0.00149906  0.51124603
   0.50875819  0.28196162  0.34547172
   0.33626604  0.72646417  0.50769281
   0.50395382  0.50143329  0.52947703
   0.50884116  0.71974796  0.34559505
   0.66899407  0.27977859  0.51942003
   0.84156986  0.00215220  0.52064446
   0.83146251  0.27411436  0.34660544
   0.66933642  0.72442943  0.51871603
   0.85099361  0.50240779  0.50399931
   0.83182184  0.73007512  0.34599596
   0.00253626  0.27378101  0.83697941
   0.20104380  0.00091239  0.85365167
   0.19377512  0.23781854  0.68090099
   0.00426685  0.72549132  0.83951361
   0.16838756  0.49690359  0.82902459
   0.19038946  0.76246090  0.68135502
   0.33748507  0.27530314  0.86539909
   0.48436160  0.00088728  0.85629323
   0.47978103  0.24221914  0.68046406
   0.33647719  0.71436846  0.85705578
   0.51705844  0.49995308  0.82776469
   0.48283948  0.75935658  0.68045318
   0.66808423  0.24597782  0.84266394
   0.83459444  0.00126761  0.84657683
   0.83396640  0.29599170  0.67912854
   0.66749626  0.75473163  0.84390672
   0.82566403  0.50133150  0.86269486
   0.83453363  0.71000343  0.67947082
   0.67045339  0.29773305  0.17750010
   0.99882835  0.50288300  0.01037862
   0.33464953  0.50228852  0.01687999
   0.67096843  0.50200441  0.00903929
   0.99676911  0.50095112  0.34215189
   0.33927157  0.50119427  0.34023378
   0.67000650  0.50112132  0.34725007
   0.99987186  0.50400873  0.67275496
   0.33494350  0.00158379  0.66664818
   0.33479532  0.50393937  0.67546833
   0.66920056  0.50443290  0.67504809
   0.16787956  0.24374310  0.17471851
   0.16829153  0.75932105  0.17564553
   0.50602871  0.24063525  0.17455879
   0.50547180  0.76287570  0.17559930
   0.83220227  0.24268176  0.17848373
   0.83182465  0.76047170  0.17871821
   0.16935329  0.75749587  0.50430181
   0.50532767  0.24052132  0.50482721
   0.50547472  0.76342769  0.50545848
   0.83270539  0.23874320  0.50969561
   0.83280482  0.76586570  0.50912206
   0.16540491  0.24833744  0.84294728
   0.16838430  0.76646870  0.84570517
   0.50235000  0.25120692  0.84314231
   0.50007441  0.75885690  0.84585413
   0.83739278  0.24310537  0.83827675
   0.83814668  0.76086844  0.83915352
   0.16969220  0.24688318  0.50401116
   0.33940885  0.04386981  0.94856532
   0.00363919  0.00136447  0.23303462
   0.33508191  0.00097980  0.23097771
   0.87104963  0.00208525  0.01068997
   0.00694026  0.00226497  0.55571762
   0.66440243  0.00094846  0.85733142
Direct configuration=     2
   0.00279038  0.25964799  0.19093281
   0.16554900  0.00051764  0.19300478
   0.15973662  0.27550345  0.01260870
   0.00328597  0.74194341  0.18906530
   0.18050994  0.50019315  0.17351841
   0.16280281  0.72187216  0.01255712
   0.33553441  0.23952346  0.17938802
   0.50380746  0.00070141  0.17817966
   0.50828288  0.28703230  0.01323697
   0.33572849  0.76004668  0.18301636
   0.47745047  0.50000634  0.18178580
   0.50571387  0.71201638  0.01314058
   0.84367500  0.00138382  0.17722524
   0.84257986  0.25164258  0.01219456
   0.66995764  0.70502663  0.17682531
   0.85193124  0.50155298  0.17000521
   0.84236773  0.75151988  0.01229565
   0.00472172  0.24939090  0.52147331
   0.17723091  0.00135457  0.51042339
   0.16792436  0.29675294  0.34707548
   0.00444393  0.75446184  0.52071773
   0.15991555  0.50125391  0.53658500
   0.16750142  0.70491436  0.34718378
   0.33647350  0.27715292  0.50605360
   0.48715488  0.00149815  0.51125113
   0.50875682  0.28196360  0.34547414
   0.33626107  0.72645725  0.50769173
   0.50396468  0.50143419  0.52947778
   0.50884015  0.71974546  0.34559799
   0.66899225  0.27976476  0.51942712
   0.84157530  0.00215483  0.52065177
   0.83146180  0.27411253  0.34660759
   0.66933781  0.72444388  0.51872358
   0.85098199  0.50240771  0.50399749
   0.83182113  0.73007848  0.34599735
   0.00253488  0.27379062  0.83698667
   0.20103752  0.00091148  0.85365635
   0.19377242  0.23781694  0.68090225
   0.00426066  0.72548481  0.83951810
   0.16838685  0.49690127  0.82901667
   0.19038737  0.76246798  0.68135789
   0.33748441  0.27529707  0.86540775
   0.48436450  0.00088804  0.85628628
   0.47977271  0.24222452  0.68046514
   0.33647310  0.71437995  0.85706424
   0.51705339  0.49995197  0.82777078
   0.48283293  0.75935458  0.68044898
   0.66808483  0.24598066  0.84265018
   0.83459274  0.00126748  0.84657143
   0.83397344  0.29599591  0.67912827
   0.66749725  0.75473199  0.84389471
   0.82565788  0.50133532  0.86269876
   0.83453822  0.70999903  0.67947051
   0.67045282  0.29774284  0.17750884
   0.99883098  0.50288225  0.01038412
   0.33465056  0.50229030  0.01688418
   0.67097425  0.50200493  0.00904811
   0.99676681  0.50094928  0.34215390
   0.33927051  0.50119500  0.34023626
   0.67000691  0.50112225  0.34726692
   0.99987624  0.50400838  0.67275663
   0.33494449  0.00158431  0.66665430
   0.33479208  0.50394068  0.67546658
   0.66920088  0.50443285  0.67505792
   0.16788031  0.24374715  0.17471801
   0.16829001  0.75931972  0.17564679
   0.50602885  0.24063569  0.17456140
   0.50547218  0.76287355  0.17560376
   0.83219844  0.24268355  0.17849013
   0.83182072  0.76046857  0.17872499
   0.16935442  0.75749650  0.50430168
   0.50532505  0.24051847  0.50483138
   0.50547399  0.76342488  0.50546280
   0.83270336  0.23874350  0.50970228
   0.83280530  0.76586524  0.50912859
   0.16540699  0.24833637  0.84294940
   0.16838282  0.76646607  0.84570633
   0.50234767  0.25120965  0.84314655
   0.50007170  0.75885599  0.84585687
   0.83739469  0.24311063  0.83828101
   0.83814712  0.76086587  0.83915699
   0.16969390  0.24688291  0.50400933
   0.33940692  0.04386726  0.94856236
   0.00363663  0.00136955  0.23301711
   0.33508485  0.00098031  0.23096814
   0.87101109  0.00208448  0.01068857
   0.00694435  0.00226731  0.55571491
   0.66439914  0.00095586  0.85727333
Direct configuration=     3
   0.00278394  0.25964556  0.19092944
   0.16554472  0.00051833  0.19299776
   0.15973269  0.27551823  0.01261016
   0.00328215  0.74194625  0.18906103
   0.18050744  0.50019219  0.17352371
   0.16279858  0.72186327  0.01255770
   0.33553349  0.23951961  0.17938414
   0.50380681  0.00070073  0.17818444
   0.50828971  0.28703000  0.01324242
   0.33572741  0.76005331  0.18301190
   0.47744386  0.50000370  0.18178771
   0.50572022  0.71201944  0.01314238
   0.84366582  0.00138345  0.17722559
   0.84256692  0.25164182  0.01219876
   0.66995945  0.70502099  0.17683392
   0.85193172  0.50155342  0.17000695
   0.84235665  0.75151938  0.01229958
   0.00471818  0.24939643  0.52147034
   0.17723068  0.00135757  0.51041877
   0.16792426  0.29674905  0.34707476
   0.00444321  0.75446315  0.52071780
   0.15991399  0.50125536  0.53658088
   0.16749668  0.70492389  0.34718343
   0.33647398  0.27716411  0.50604920
   0.48714910  0.00149756  0.51125597
   0.50875550  0.28196556  0.34547682
   0.33625634  0.72645009  0.50769049
   0.50397541  0.50143501  0.52947841
   0.50883921  0.71974303  0.34560141
   0.66899035  0.27975089  0.51943401
   0.84158069  0.00215698  0.52065905
   0.83146124  0.27411080  0.34660964
   0.66933912  0.72445834  0.51873092
   0.85097027  0.50240789  0.50399562
   0.83182046  0.73008197  0.34599884
   0.00253351  0.27380019  0.83699389
   0.20103112  0.00091058  0.85366104
   0.19376973  0.23781513  0.68090342
   0.00425459  0.72547834  0.83952265
   0.16838627  0.49689855  0.82900903
   0.19038518  0.76247537  0.68136069
   0.33748381  0.27529103  0.86541654
   0.48436731  0.00088924  0.85627965
   0.47976462  0.24222957  0.68046597
   0.33646918  0.71439134  0.85707283
   0.51704858  0.49995041  0.82777678
   0.48282660  0.75935287  0.68044495
   0.66808529  0.24598337  0.84263665
   0.83459107  0.00126715  0.84656603
   0.83398020  0.29599989  0.67912779
   0.66749834  0.75473246  0.84388308
   0.82565163  0.50133907  0.86270301
   0.83454265  0.70999490  0.67946997
   0.67045214  0.29775235  0.17751758
   0.99883349  0.50288151  0.01038959
   0.33465159  0.50229208  0.01688834
   0.67098005  0.50200547  0.00905693
   0.99676448  0.50094746  0.34215589
   0.33926940  0.50119573  0.34023864
   0.67000731  0.50112317  0.34728376
   0.99988057  0.50400802  0.67275830
   0.33494541  0.00158483  0.66666036
   0.33478889  0.50394198  0.67546480
   0.66920127  0.50443279  0.67506770
   0.16788104  0.24375138  0.17471744
   0.16828852  0.75931826  0.17564802
   0.50602893  0.24063606  0.17456408
   0.50547249  0.76287137  0.17560820
   0.83219456  0.24268515  0.17849669
   0.83181677  0.76046565  0.17873184
   0.16935539  0.75749703  0.50430149
   0.50532241  0.24051564  0.50483554
   0.50547327  0.76342193  0.50546697
   0.83270143  0.23874385  0.50970897
   0.83280598  0.76586491  0.50913515
   0.16540891  0.24833562  0.84295150
   0.16838113  0.76646322  0.84570750
   0.50234530  0.25121223  0.84315080
   0.50006905  0.75885514  0.84585978
   0.83739675  0.24311597  0.83828528
   0.83814780  0.76086325  0.83916039
   0.16969547  0.24688263  0.50400748
   0.33940522  0.04386490  0.94855950
   0.00363367  0.00137477  0.23299968
   0.33508782  0.00098098  0.23095875
   0.87097273  0.00208361  0.01068743
   0.00694842  0.00226947  0.55571218
   0.66439568  0.00096302  0.85721533
Direct configuration=     4
   0.00277807  0.25964321  0.19092604
   0.16554061  0.00051894  0.19299056
   0.15972873  0.27553272  0.01261155
   0.00327849  0.74194893  0.18905690
   0.18050491  0.50019115  0.17352904
   0.16279437  0.72185467  0.01255782
   0.33553208  0.23951572  0.17938017
   0.50380635  0.00070040  0.17818913
   0.50829665  0.28702777  0.01324724
   0.33572587  0.76006010  0.18300747
   0.47743744  0.50000114  0.18178955
   0.50572659  0.71202245  0.01314371
   0.84365667  0.00138297  0.17722596
   0.84255418  0.25164126  0.01220280
   0.66996115  0.70501559  0.17684244
   0.85193212  0.50155411  0.17000856
   0.84234555  0.75151868  0.01230328
   0.00471492  0.24940177  0.52146728
   0.17723057  0.00136073  0.51041438
   0.16792415  0.29674490  0.34707419
   0.00444267  0.75446478  0.52071788
   0.15991274  0.50125660  0.53657650
   0.16749193  0.70493354  0.34718331
   0.33647451  0.27717544  0.50604511
   0.48714325  0.00149738  0.51126075
   0.50875422  0.28196742  0.34547984
   0.33625186  0.72644276  0.50768932
   0.50398597  0.50143575  0.52947909
   0.50883831  0.71974076  0.34560535
   0.66898828  0.27973687  0.51944088
   0.84158600  0.00215873  0.52066636
   0.83146080  0.27410923  0.34661155
   0.66934025  0.72447290  0.51873819
   0.85095845  0.50240833  0.50399383
   0.83181984  0.73008544  0.34600045
   0.00253209  0.27380961  0.83700108
   0.20102456  0.00090975  0.85366563
   0.19376711  0.23781312  0.68090462
   0.00424865  0.72547201  0.83952722
   0.16838600  0.49689541  0.82900160
   0.19038300  0.76248306  0.68136351
   0.33748347  0.27528477  0.86542528
   0.48437016  0.00089097  0.85627311
   0.47975675  0.24223441  0.68046693
   0.33646558  0.71440289  0.85708138
   0.51704381  0.49994816  0.82778274
   0.48282043  0.75935137  0.68044134
   0.66808541  0.24598607  0.84262320
   0.83458938  0.00126684  0.84656062
   0.83398660  0.29600358  0.67912737
   0.66749933  0.75473297  0.84387168
   0.82564519  0.50134262  0.86270746
   0.83454679  0.70999104  0.67946935
   0.67045135  0.29776163  0.17752627
   0.99883587  0.50288076  0.01039501
   0.33465269  0.50229390  0.01689236
   0.67098580  0.50200602  0.00906570
   0.99676218  0.50094568  0.34215790
   0.33926822  0.50119651  0.34024101
   0.67000769  0.50112409  0.34730066
   0.99988491  0.50400766  0.67276000
   0.33494637  0.00158533  0.66666646
   0.33478580  0.50394327  0.67546303
   0.66920163  0.50443270  0.67507758
   0.16788178  0.24375567  0.17471682
   0.16828709  0.75931674  0.17564925
   0.50602894  0.24063628  0.17456680
   0.50547273  0.76286921  0.17561257
   0.83219061  0.24268649  0.17850337
   0.83181281  0.76046299  0.17873873
   0.16935625  0.75749747  0.50430125
   0.50531976  0.24051276  0.50483975
   0.50547255  0.76341887  0.50547108
   0.83269957  0.23874417  0.50971568
   0.83280685  0.76586475  0.50914174
   0.16541072  0.24833511  0.84295357
   0.16837930  0.76646017  0.84570867
   0.50234289  0.25121468  0.84315501
   0.50006647  0.75885438  0.84586282
   0.83739889  0.24312136  0.83828955
   0.83814867  0.76086058  0.83916372
   0.16969694  0.24688232  0.50400562
   0.33940381  0.04386274  0.94855673
   0.00363023  0.00138013  0.23298235
   0.33509084  0.00098188  0.23094963
   0.87093455  0.00208269  0.01068651
   0.00695248  0.00227145  0.55570946
   0.66439202  0.00096992  0.85715741
Direct configuration=     5
   0.00277271  0.25964089  0.19092260
   0.16553652  0.00051959  0.19298327
   0.15972469  0.27554695  0.01261267
   0.00327488  0.74195144  0.18905290
   0.18050222  0.50018992  0.17353447
   0.16279011  0.72184619  0.01255731
   0.33553022  0.23951184  0.17937613
   0.50380617  0.00070043  0.17819385
   0.50830374  0.28702552  0.01325145
   0.33572398  0.76006699  0.18300308
   0.47743142  0.49999856  0.18179139
   0.50573306  0.71202532  0.01314463
   0.84364755  0.00138247  0.17722638
   0.84254160  0.25164075  0.01220656
   0.66996259  0.70501033  0.17685101
   0.85193233  0.50155493  0.17001014
   0.84233438  0.75151789  0.01230661
   0.00471178  0.24940673  0.52146423
   0.17723052  0.00136413  0.51041030
   0.16792400  0.29674057  0.34707361
   0.00444215  0.75446690  0.52071808
   0.15991172  0.50125758  0.53657190
   0.16748714  0.70494315  0.34718332
   0.33647512  0.27718691  0.50604136
   0.48713730  0.00149763  0.51126545
   0.50875303  0.28196919  0.34548318
   0.33624770  0.72643523  0.50768826
   0.50399644  0.50143635  0.52947978
   0.50883752  0.71973853  0.34560976
   0.66898605  0.27972253  0.51944777
   0.84159131  0.00216012  0.52067387
   0.83146045  0.27410772  0.34661344
   0.66934121  0.72448767  0.51874546
   0.85094643  0.50240893  0.50399222
   0.83181922  0.73008894  0.34600231
   0.00253061  0.27381884  0.83700821
   0.20101787  0.00090925  0.85367013
   0.19376454  0.23781085  0.68090572
   0.00424287  0.72546579  0.83953174
   0.16838601  0.49689188  0.82899435
   0.19038080  0.76249115  0.68136628
   0.33748313  0.27527816  0.86543406
   0.48437298  0.00089342  0.85626660
   0.47974895  0.24223896  0.68046768
   0.33646206  0.71441459  0.85708990
   0.51703908  0.49994530  0.82778863
   0.48281427  0.75935017  0.68043785
   0.66808537  0.24598858  0.84260968
   0.83458769  0.00126660  0.84655515
   0.83399274  0.29600687  0.67912679
   0.66750037  0.75473372  0.84386037
   0.82563863  0.50134588  0.86271201
   0.83455074  0.70998750  0.67946847
   0.67045036  0.29777067  0.17753502
   0.99883814  0.50287998  0.01040045
   0.33465382  0.50229570  0.01689638
   0.67099158  0.50200657  0.00907458
   0.99675982  0.50094389  0.34215989
   0.33926700  0.50119727  0.34024327
   0.67000808  0.50112496  0.34731761
   0.99988921  0.50400726  0.67276170
   0.33494726  0.00158584  0.66667252
   0.33478273  0.50394454  0.67546121
   0.66920213  0.50443257  0.67508740
   0.16788248  0.24376014  0.17471618
   0.16828567  0.75931506  0.17565049
   0.50602895  0.24063645  0.17456960
   0.50547296  0.76286693  0.17561687
   0.83218662  0.24268763  0.17851015
   0.83180884  0.76046053  0.17874568
   0.16935700  0.75749783  0.50430100
   0.50531708  0.24050988  0.50484399
   0.50547184  0.76341569  0.50547517
   0.83269779  0.23874455  0.50972245
   0.83280792  0.76586469  0.50914840
   0.16541239  0.24833485  0.84295565
   0.16837730  0.76645686  0.84570986
   0.50234049  0.25121695  0.84315924
   0.50006399  0.75885370  0.84586603
   0.83740110  0.24312682  0.83829384
   0.83814970  0.76085786  0.83916701
   0.16969830  0.24688194  0.50400383
   0.33940259  0.04386077  0.94855395
   0.00362628  0.00138569  0.23296509
   0.33509395  0.00098304  0.23094075
   0.87089654  0.00208176  0.01068584
   0.00695638  0.00227331  0.55570673
   0.66438833  0.00097652  0.85709955
Direct configuration=     6
   0.00276802  0.25963864  0.19091915
   0.16553264  0.00052014  0.19297580
   0.15972063  0.27556100  0.01261361
   0.00327150  0.74195385  0.18904901
   0.18049955  0.50018870  0.17353995
   0.16278587  0.72183789  0.01255631
   0.33552800  0.23950784  0.17937201
   0.50380613  0.00070075  0.17819856
   0.50831090  0.28702348  0.01325518
   0.33572176  0.76007412  0.18299871
   0.47742547  0.49999619  0.18179319
   0.50573951  0.71202803  0.01314525
   0.84363847  0.00138184  0.17722685
   0.84252923  0.25164047  0.01221006
   0.66996365  0.70500525  0.17685958
   0.85193249  0.50155605  0.17001165
   0.84232321  0.75151692  0.01230963
   0.00470889  0.24941161  0.52146108
   0.17723062  0.00136764  0.51040651
   0.16792382  0.29673614  0.34707313
   0.00444172  0.75446927  0.52071830
   0.15991093  0.50125839  0.53656711
   0.16748234  0.70495279  0.34718348
   0.33647580  0.27719870  0.50603786
   0.48713120  0.00149823  0.51127011
   0.50875186  0.28197102  0.34548681
   0.33624391  0.72642740  0.50768718
   0.50400680  0.50143694  0.52948047
   0.50883675  0.71973634  0.34561459
   0.66898367  0.27970815  0.51945463
   0.84159650  0.00216109  0.52068141
   0.83146019  0.27410642  0.34661539
   0.66934197  0.72450251  0.51875261
   0.85093432  0.50240984  0.50399058
   0.83181865  0.73009243  0.34600446
   0.00252917  0.27382809  0.83701535
   0.20101110  0.00090897  0.85367458
   0.19376211  0.23780833  0.68090688
   0.00423732  0.72545952  0.83953632
   0.16838633  0.49688806  0.82898729
   0.19037860  0.76249957  0.68136908
   0.33748286  0.27527152  0.86544292
   0.48437572  0.00089632  0.85626019
   0.47974119  0.24224328  0.68046843
   0.33645881  0.71442628  0.85709847
   0.51703438  0.49994191  0.82779444
   0.48280816  0.75934918  0.68043475
   0.66808500  0.24599119  0.84259620
   0.83458603  0.00126638  0.84654968
   0.83399856  0.29601008  0.67912621
   0.66750125  0.75473445  0.84384928
   0.82563192  0.50134893  0.86271683
   0.83455447  0.70998410  0.67946747
   0.67044905  0.29777961  0.17754378
   0.99884030  0.50287928  0.01040589
   0.33465498  0.50229760  0.01690036
   0.67099733  0.50200721  0.00908344
   0.99675749  0.50094219  0.34216186
   0.33926567  0.50119815  0.34024544
   0.67000846  0.50112591  0.34733458
   0.99989353  0.50400692  0.67276342
   0.33494811  0.00158626  0.66667862
   0.33477974  0.50394586  0.67545941
   0.66920260  0.50443248  0.67509733
   0.16788314  0.24376465  0.17471553
   0.16828426  0.75931334  0.17565173
   0.50602886  0.24063654  0.17457245
   0.50547308  0.76286458  0.17562111
   0.83218265  0.24268849  0.17851700
   0.83180496  0.76045832  0.17875265
   0.16935761  0.75749807  0.50430066
   0.50531437  0.24050705  0.50484818
   0.50547112  0.76341235  0.50547918
   0.83269614  0.23874493  0.50972919
   0.83280921  0.76586476  0.50915504
   0.16541392  0.24833490  0.84295772
   0.16837512  0.76645329  0.84571109
   0.50233809  0.25121915  0.84316346
   0.50006159  0.75885304  0.84586940
   0.83740340  0.24313234  0.83829819
   0.83815092  0.76085507  0.83917029
   0.16969953  0.24688157  0.50400200
   0.33940154  0.04385884  0.94855131
   0.00362191  0.00139133  0.23294791
   0.33509705  0.00098435  0.23093209
   0.87085874  0.00208072  0.01068553
   0.00696015  0.00227496  0.55570399
   0.66438457  0.00098268  0.85704176
Direct configuration=     7
   0.00276406  0.25963651  0.19091572
   0.16552894  0.00052052  0.19296825
   0.15971653  0.27557495  0.01261475
   0.00326835  0.74195607  0.18904532
   0.18049691  0.50018763  0.17354542
   0.16278162  0.72182963  0.01255523
   0.33552536  0.23950379  0.17936785
   0.50380616  0.00070119  0.17820329
   0.50831814  0.28702159  0.01325915
   0.33571920  0.76008136  0.18299446
   0.47741971  0.49999413  0.18179500
   0.50574596  0.71203056  0.01314631
   0.84362960  0.00138095  0.17722734
   0.84251715  0.25164040  0.01221354
   0.66996423  0.70500022  0.17686818
   0.85193255  0.50155752  0.17001314
   0.84231210  0.75151581  0.01231255
   0.00470593  0.24941634  0.52145785
   0.17723082  0.00137113  0.51040306
   0.16792360  0.29673177  0.34707212
   0.00444102  0.75447185  0.52071855
   0.15991031  0.50125913  0.53656210
   0.16747754  0.70496223  0.34718317
   0.33647648  0.27721067  0.50603460
   0.48712500  0.00149900  0.51127459
   0.50875074  0.28197300  0.34549021
   0.33624048  0.72641933  0.50768605
   0.50401709  0.50143761  0.52948097
   0.50883603  0.71973404  0.34561929
   0.66898151  0.27969377  0.51946135
   0.84160162  0.00216150  0.52068899
   0.83146003  0.27410552  0.34661730
   0.66934283  0.72451735  0.51875959
   0.85092209  0.50241109  0.50398895
   0.83181813  0.73009566  0.34600678
   0.00252780  0.27383747  0.83702247
   0.20100424  0.00090896  0.85367899
   0.19375974  0.23780557  0.68090792
   0.00423202  0.72545309  0.83954094
   0.16838685  0.49688429  0.82898046
   0.19037637  0.76250827  0.68137174
   0.33748206  0.27526475  0.86545193
   0.48437835  0.00089954  0.85625395
   0.47973353  0.24224731  0.68046859
   0.33645534  0.71443793  0.85710710
   0.51702974  0.49993839  0.82780015
   0.48280209  0.75934843  0.68043158
   0.66808487  0.24599380  0.84258285
   0.83458442  0.00126597  0.84654439
   0.83400411  0.29601328  0.67912509
   0.66750245  0.75473522  0.84383846
   0.82562521  0.50135187  0.86272185
   0.83455802  0.70998074  0.67946589
   0.67044738  0.29778849  0.17755259
   0.99884232  0.50287852  0.01041124
   0.33465621  0.50229947  0.01690420
   0.67100305  0.50200781  0.00909229
   0.99675511  0.50094046  0.34216387
   0.33926434  0.50119898  0.34024758
   0.67000881  0.50112679  0.34735162
   0.99989778  0.50400652  0.67276517
   0.33494900  0.00158673  0.66668472
   0.33477683  0.50394713  0.67545759
   0.66920314  0.50443231  0.67510724
   0.16788373  0.24376925  0.17471485
   0.16828283  0.75931154  0.17565299
   0.50602883  0.24063654  0.17457526
   0.50547327  0.76286222  0.17562517
   0.83217860  0.24268909  0.17852386
   0.83180106  0.76045640  0.17875961
   0.16935818  0.75749834  0.50430042
   0.50531158  0.24050414  0.50485259
   0.50547036  0.76340906  0.50548337
   0.83269454  0.23874528  0.50973610
   0.83281067  0.76586505  0.50916186
   0.16541541  0.24833506  0.84295968
   0.16837288  0.76644955  0.84571224
   0.50233575  0.25122109  0.84316757
   0.50005933  0.75885254  0.84587284
   0.83740562  0.24313784  0.83830254
   0.83815215  0.76085233  0.83917350
   0.16970073  0.24688107  0.50400032
   0.33940058  0.04385689  0.94854845
   0.00361721  0.00139708  0.23293064
   0.33510015  0.00098585  0.23092344
   0.87082093  0.00207958  0.01068545
   0.00696361  0.00227648  0.55570127
   0.66438097  0.00098834  0.85698394
Direct configuration=     8
   0.00276087  0.25963436  0.19091231
   0.16552550  0.00052069  0.19296049
   0.15971236  0.27558868  0.01261591
   0.00326551  0.74195829  0.18904180
   0.18049429  0.50018675  0.17355094
   0.16277733  0.72182158  0.01255393
   0.33552230  0.23949950  0.17936366
   0.50380622  0.00070173  0.17820808
   0.50832539  0.28701997  0.01326291
   0.33571627  0.76008891  0.18299032
   0.47741397  0.49999247  0.18179685
   0.50575233  0.71203291  0.01314738
   0.84362090  0.00137985  0.17722795
   0.84250541  0.25164047  0.01221689
   0.66996433  0.70499533  0.17687688
   0.85193264  0.50155938  0.17001465
   0.84230113  0.75151464  0.01231531
   0.00470317  0.24942097  0.52145443
   0.17723103  0.00137459  0.51039975
   0.16792328  0.29672738  0.34707088
   0.00444032  0.75447465  0.52071872
   0.15990974  0.50125981  0.53655681
   0.16747272  0.70497164  0.34718269
   0.33647710  0.27722301  0.50603139
   0.48711875  0.00149995  0.51127871
   0.50874963  0.28197510  0.34549367
   0.33623739  0.72641095  0.50768469
   0.50402732  0.50143843  0.52948115
   0.50883531  0.71973178  0.34562411
   0.66897936  0.27967940  0.51946781
   0.84160664  0.00216140  0.52069647
   0.83146003  0.27410489  0.34661921
   0.66934356  0.72453225  0.51876623
   0.85090983  0.50241273  0.50398715
   0.83181774  0.73009884  0.34600931
   0.00252650  0.27384688  0.83702965
   0.20099713  0.00090902  0.85368354
   0.19375735  0.23780263  0.68090889
   0.00422707  0.72544665  0.83954570
   0.16838754  0.49688048  0.82897397
   0.19037396  0.76251716  0.68137433
   0.33748109  0.27525799  0.86546122
   0.48438086  0.00090300  0.85624798
   0.47972589  0.24225110  0.68046857
   0.33645202  0.71444955  0.85711591
   0.51702516  0.49993471  0.82780584
   0.48279606  0.75934785  0.68042875
   0.66808449  0.24599643  0.84256964
   0.83458298  0.00126550  0.84653920
   0.83400948  0.29601646  0.67912382
   0.66750351  0.75473608  0.84382794
   0.82561858  0.50135469  0.86272718
   0.83456146  0.70997754  0.67946409
   0.67044538  0.29779733  0.17756152
   0.99884422  0.50287783  0.01041664
   0.33465743  0.50230140  0.01690812
   0.67100881  0.50200848  0.00910128
   0.99675266  0.50093880  0.34216583
   0.33926297  0.50119989  0.34024953
   0.67000918  0.50112770  0.34736869
   0.99990198  0.50400617  0.67276690
   0.33494977  0.00158715  0.66669078
   0.33477392  0.50394843  0.67545571
   0.66920384  0.50443218  0.67511709
   0.16788426  0.24377388  0.17471416
   0.16828139  0.75930974  0.17565424
   0.50602876  0.24063646  0.17457817
   0.50547344  0.76285983  0.17562919
   0.83217455  0.24268940  0.17853082
   0.83179722  0.76045475  0.17876660
   0.16935859  0.75749856  0.50430011
   0.50530882  0.24050122  0.50485695
   0.50546965  0.76340572  0.50548749
   0.83269305  0.23874562  0.50974301
   0.83281226  0.76586551  0.50916869
   0.16541672  0.24833549  0.84296164
   0.16837043  0.76644564  0.84571342
   0.50233345  0.25122289  0.84317168
   0.50005722  0.75885213  0.84587642
   0.83740794  0.24314334  0.83830691
   0.83815355  0.76084959  0.83917666
   0.16970176  0.24688051  0.50399865
   0.33939976  0.04385491  0.94854573
   0.00361213  0.00140288  0.23291339
   0.33510315  0.00098746  0.23091494
   0.87078328  0.00207832  0.01068575
   0.00696688  0.00227782  0.55569851
   0.66437739  0.00099346  0.85692615
Direct configuration=     9
   0.00275840  0.25963229  0.19090893
   0.16552228  0.00052069  0.19295258
   0.15970822  0.27560216  0.01261682
   0.00326294  0.74196034  0.18903845
   0.18049174  0.50018597  0.17355650
   0.16277312  0.72181372  0.01255215
   0.33551887  0.23949511  0.17935937
   0.50380643  0.00070241  0.17821283
   0.50833272  0.28701838  0.01326582
   0.33571306  0.76009658  0.18298623
   0.47740836  0.49999112  0.18179860
   0.50575868  0.71203523  0.01314796
   0.84361224  0.00137867  0.17722860
   0.84249386  0.25164074  0.01221978
   0.66996391  0.70499060  0.17688552
   0.85193267  0.50156146  0.17001605
   0.84229010  0.75151332  0.01231760
   0.00470089  0.24942548  0.52145094
   0.17723145  0.00137810  0.51039676
   0.16792295  0.29672281  0.34706972
   0.00443988  0.75447763  0.52071894
   0.15990948  0.50126036  0.53655137
   0.16746796  0.70498108  0.34718235
   0.33647768  0.27723555  0.50602857
   0.48711235  0.00150114  0.51128279
   0.50874852  0.28197713  0.34549741
   0.33623466  0.72640236  0.50768345
   0.50403735  0.50143928  0.52948144
   0.50883459  0.71972964  0.34562928
   0.66897701  0.27966497  0.51947429
   0.84161154  0.00216089  0.52070401
   0.83146011  0.27410445  0.34662113
   0.66934393  0.72454719  0.51877281
   0.85089750  0.50241464  0.50398541
   0.83181740  0.73010194  0.34601209
   0.00252522  0.27385618  0.83703678
   0.20098999  0.00090924  0.85368798
   0.19375515  0.23779947  0.68090984
   0.00422250  0.72544026  0.83955045
   0.16838865  0.49687657  0.82896761
   0.19037163  0.76252626  0.68137686
   0.33748035  0.27525096  0.86547043
   0.48438335  0.00090683  0.85624204
   0.47971832  0.24225476  0.68046885
   0.33644918  0.71446130  0.85712461
   0.51702048  0.49993065  0.82781145
   0.48279009  0.75934739  0.68042667
   0.66808353  0.24599907  0.84255643
   0.83458151  0.00126519  0.84653403
   0.83401450  0.29601953  0.67912272
   0.66750405  0.75473698  0.84381759
   0.82561177  0.50135713  0.86273261
   0.83456462  0.70997443  0.67946234
   0.67044307  0.29780598  0.17757039
   0.99884599  0.50287707  0.01042196
   0.33465874  0.50230331  0.01691186
   0.67101451  0.50200912  0.00911020
   0.99675022  0.50093712  0.34216784
   0.33926153  0.50120078  0.34025153
   0.67000953  0.50112857  0.34738581
   0.99990617  0.50400576  0.67276866
   0.33495059  0.00158760  0.66669686
   0.33477113  0.50394968  0.67545384
   0.66920451  0.50443198  0.67512701
   0.16788471  0.24377848  0.17471345
   0.16827991  0.75930797  0.17565549
   0.50602870  0.24063628  0.17458116
   0.50547362  0.76285745  0.17563313
   0.83217046  0.24268942  0.17853786
   0.83179341  0.76045341  0.17877363
   0.16935885  0.75749875  0.50429974
   0.50530605  0.24049830  0.50486129
   0.50546898  0.76340235  0.50549157