unknown system                          
           1
    11.636000    0.000000    0.000000
     0.000000    7.905000    0.000000
     0.000000    0.000000   11.636000
   O    La   Ti   Li
    54    10    18     6
Direct configuration=     1
   0.00153778  0.26019412  0.23177711
   0.16356473  0.00031282  0.23326969
   0.15826669  0.27226510  0.05206254
   0.00193634  0.74112250  0.22992232
   0.17898784  0.50001772  0.21200121
   0.16093305  0.72417783  0.05198348
   0.33364344  0.23973737  0.22052953
   0.50188566  0.00062773  0.21652770
   0.50465486  0.28810681  0.05330038
   0.33376125  0.75970898  0.22366678
   0.47667371  0.50016247  0.22213625
   0.50228706  0.71075430  0.05299684
   0.84383698  0.00130158  0.21634580
   0.84471075  0.25247193  0.05243919
   0.66831779  0.70734239  0.21517471
   0.84948963  0.50154331  0.21039954
   0.84423615  0.75049743  0.05246177
   0.00268867  0.24906394  0.56173046
   0.17526094  0.00142041  0.55054155
   0.16628937  0.29743668  0.38709775
   0.00245702  0.75503639  0.56080410
   0.15809557  0.50126492  0.57645999
   0.16599387  0.70406395  0.38714364
   0.33493112  0.27639735  0.54620219
   0.48542225  0.00155165  0.54992331
   0.50737991  0.28249320  0.38508268
   0.33469333  0.72750596  0.54808936
   0.50091331  0.50155473  0.57070616
   0.50731033  0.71947881  0.38527474
   0.66710215  0.28185804  0.55800624
   0.83958349  0.00228013  0.55915874
   0.82967586  0.27448514  0.38622467
   0.66751155  0.72284107  0.55743110
   0.84997505  0.50248268  0.54479513
   0.82995256  0.72985279  0.38562319
   0.00054279  0.27331010  0.87523721
   0.19944870  0.00080899  0.89218614
   0.19243003  0.23879073  0.72037141
   0.00238015  0.72575401  0.87787901
   0.16584519  0.49684038  0.87032536
   0.18878351  0.76154832  0.72078677
   0.33608166  0.27693625  0.90372647
   0.48124254  0.00091891  0.90061799
   0.48027620  0.23965479  0.72044190
   0.33508604  0.71240103  0.89526766
   0.51780849  0.49946310  0.86687166
   0.48328202  0.76163578  0.72068914
   0.66662849  0.24241638  0.88949609
   0.83444065  0.00121862  0.89060373
   0.83005230  0.29385754  0.71910704
   0.66609018  0.75775294  0.89016247
   0.82309768  0.50113350  0.90175903
   0.83098520  0.71197539  0.71943985
   0.66885585  0.29542363  0.21590495
   0.99615750  0.50281834  0.04911464
   0.33277557  0.50237819  0.05547998
   0.66822187  0.50193219  0.04751844
   0.99469724  0.50088885  0.38141526
   0.33727830  0.50114742  0.37926213
   0.66827025  0.50119690  0.38536758
   0.99716740  0.50417077  0.71234933
   0.33247684  0.00153581  0.70570880
   0.33307876  0.50387356  0.71519673
   0.66730035  0.50479375  0.71333877
   0.16589671  0.24351547  0.21424678
   0.16623109  0.75900053  0.21507761
   0.50369460  0.24069638  0.21387870
   0.50303115  0.76245487  0.21456402
   0.83055803  0.24241588  0.21726364
   0.83014544  0.76062080  0.21753499
   0.16740292  0.75720815  0.54393799
   0.50344721  0.24042988  0.54392757
   0.50373692  0.76363571  0.54450409
   0.83056722  0.23884342  0.54869067
   0.83087721  0.76623566  0.54805982
   0.16302198  0.24837443  0.88220500
   0.16629531  0.76610930  0.88493988
   0.50096906  0.24986408  0.88204135
   0.49862788  0.76060838  0.88473236
   0.83435458  0.24187127  0.87753688
   0.83531879  0.76229246  0.87851725
   0.16762264  0.24729043  0.54376748
   0.33624899  0.04684958  0.98912121
   0.00220630  0.00151556  0.27714806
   0.33314630  0.00078527  0.27111471
   0.88480505  0.00207679  0.05073212
   0.00489919  0.00233784  0.59626107
   0.66249216  0.00106535  0.93439285
Direct configuration=     2
   0.00153707  0.26019436  0.23178250
   0.16356405  0.00031372  0.23327566
   0.15826694  0.27226563  0.05206786
   0.00193581  0.74112513  0.22992824
   0.17898707  0.50001928  0.21200702
   0.16093122  0.72417952  0.05198839
   0.33364462  0.23973669  0.22053561
   0.50188492  0.00062815  0.21653205
   0.50465447  0.28810689  0.05330662
   0.33376195  0.75971146  0.22367222
   0.47667481  0.50016242  0.22214273
   0.50228806  0.71075600  0.05300345
   0.84383567  0.00130140  0.21634981
   0.84470989  0.25247028  0.05244461
   0.66831645  0.70734339  0.21518079
   0.84948913  0.50154373  0.21040338
   0.84423649  0.75049881  0.05246689
   0.00268869  0.24906260  0.56173640
   0.17526065  0.00142075  0.55054692
   0.16628816  0.29743603  0.38710125
   0.00245578  0.75503786  0.56080880
   0.15809479  0.50126516  0.57646471
   0.16599290  0.70406360  0.38714825
   0.33493159  0.27639511  0.54620546
   0.48542220  0.00155077  0.54992773
   0.50738082  0.28249276  0.38508753
   0.33469371  0.72750746  0.54809460
   0.50091397  0.50155515  0.57070931
   0.50731101  0.71948061  0.38527816
   0.66710163  0.28185595  0.55801142
   0.83958369  0.00228153  0.55916540
   0.82967531  0.27448441  0.38622939
   0.66751153  0.72284334  0.55743406
   0.84997524  0.50248271  0.54480078
   0.82995159  0.72985304  0.38562821
   0.00054320  0.27331044  0.87524292
   0.19944824  0.00080864  0.89218932
   0.19243081  0.23879037  0.72037599
   0.00238004  0.72575581  0.87788513
   0.16584538  0.49684117  0.87033281
   0.18878275  0.76154993  0.72079124
   0.33608236  0.27693317  0.90373207
   0.48124333  0.00091940  0.90062103
   0.48027458  0.23965144  0.72044571
   0.33508620  0.71240523  0.89527108
   0.51780757  0.49946427  0.86687640
   0.48328256  0.76163883  0.72069287
   0.66662853  0.24241715  0.88950118
   0.83443941  0.00122007  0.89060904
   0.83005344  0.29385576  0.71911158
   0.66609000  0.75775551  0.89016805
   0.82309722  0.50113456  0.90176613
   0.83098535  0.71197770  0.71944520
   0.66885437  0.29542442  0.21590964
   0.99615777  0.50281909  0.04911895
   0.33277497  0.50237873  0.05548492
   0.66822124  0.50193217  0.04752395
   0.99469720  0.50088880  0.38142072
   0.33727809  0.50114651  0.37926756
   0.66826994  0.50119701  0.38537269
   0.99716750  0.50417128  0.71235465
   0.33247681  0.00153599  0.70571408
   0.33307910  0.50387393  0.71520233
   0.66730018  0.50479386  0.71334427
   0.16589609  0.24351565  0.21425118
   0.16623001  0.75900171  0.21508050
   0.50369370  0.24069775  0.21388416
   0.50303055  0.76245536  0.21456952
   0.83055747  0.24241627  0.21727013
   0.83014523  0.76062062  0.21754023
   0.16740337  0.75720948  0.54394331
   0.50344607  0.24042856  0.54393485
   0.50373681  0.76363419  0.54450883
   0.83056638  0.23884420  0.54869733
   0.83087762  0.76623636  0.54806651
   0.16302245  0.24837427  0.88220829
   0.16629458  0.76610979  0.88494440
   0.50096941  0.24986537  0.88204664
   0.49862733  0.76060793  0.88473566
   0.83435472  0.24187213  0.87754237
   0.83531861  0.76229543  0.87852361
   0.16762293  0.24729148  0.54377213
   0.33624983  0.04684832  0.98912708
   0.00220556  0.00151504  0.27715392
   0.33314457  0.00078575  0.27112011
   0.88480324  0.00207706  0.05073760
   0.00489943  0.00233721  0.59626423
   0.66249098  0.00106770  0.93439697
Direct configuration=     3
   0.00153645  0.26019475  0.23178778
   0.16356338  0.00031474  0.23328157
   0.15826722  0.27226631  0.05207338
   0.00193525  0.74112753  0.22993406
   0.17898621  0.50002084  0.21201273
   0.16092943  0.72418095  0.05199346
   0.33364571  0.23973612  0.22054171
   0.50188416  0.00062863  0.21653642
   0.50465401  0.28810722  0.05331296
   0.33376261  0.75971375  0.22367762
   0.47667594  0.50016238  0.22214917
   0.50228899  0.71075752  0.05301019
   0.84383436  0.00130128  0.21635379
   0.84470908  0.25246875  0.05245032
   0.66831510  0.70734417  0.21518681
   0.84948866  0.50154409  0.21040718
   0.84423681  0.75050015  0.05247221
   0.00268891  0.24906121  0.56174217
   0.17526041  0.00142106  0.55055214
   0.16628698  0.29743544  0.38710447
   0.00245471  0.75503934  0.56081342
   0.15809411  0.50126544  0.57646929
   0.16599189  0.70406318  0.38715262
   0.33493196  0.27639294  0.54620862
   0.48542206  0.00155002  0.54993204
   0.50738165  0.28249246  0.38509207
   0.33469403  0.72750888  0.54809970
   0.50091410  0.50155559  0.57071190
   0.50731163  0.71948216  0.38528126
   0.66710104  0.28185337  0.55801605
   0.83958392  0.00228301  0.55917200
   0.82967484  0.27448388  0.38623377
   0.66751145  0.72284608  0.55743649
   0.84997566  0.50248268  0.54480605
   0.82995077  0.72985310  0.38563288
   0.00054378  0.27331083  0.87524864
   0.19944784  0.00080838  0.89219248
   0.19243156  0.23879004  0.72038034
   0.00238008  0.72575752  0.87789127
   0.16584564  0.49684213  0.87034025
   0.18878201  0.76155148  0.72079543
   0.33608287  0.27693025  0.90373776
   0.48124406  0.00092001  0.90062412
   0.48027281  0.23964804  0.72044941
   0.33508620  0.71240934  0.89527454
   0.51780611  0.49946541  0.86688170
   0.48328294  0.76164201  0.72069644
   0.66662849  0.24241773  0.88950655
   0.83443820  0.00122159  0.89061439
   0.83005501  0.29385345  0.71911607
   0.66608978  0.75775831  0.89017384
   0.82309697  0.50113559  0.90177356
   0.83098600  0.71198055  0.71945043
   0.66885286  0.29542536  0.21591428
   0.99615799  0.50281982  0.04912327
   0.33277439  0.50237925  0.05548988
   0.66822062  0.50193216  0.04752944
   0.99469710  0.50088876  0.38142616
   0.33727790  0.50114560  0.37927292
   0.66826965  0.50119712  0.38537779
   0.99716756  0.50417178  0.71235991
   0.33247678  0.00153616  0.70571932
   0.33307944  0.50387430  0.71520788
   0.66730003  0.50479396  0.71334975
   0.16589543  0.24351573  0.21425557
   0.16622893  0.75900301  0.21508341
   0.50369285  0.24069903  0.21388969
   0.50302998  0.76245589  0.21457503
   0.83055686  0.24241672  0.21727674
   0.83014499  0.76062051  0.21754552
   0.16740378  0.75721087  0.54394870
   0.50344500  0.24042723  0.54394222
   0.50373682  0.76363262  0.54451360
   0.83056550  0.23884493  0.54870414
   0.83087799  0.76623714  0.54807327
   0.16302291  0.24837401  0.88221164
   0.16629384  0.76611034  0.88494888
   0.50096985  0.24986663  0.88205192
   0.49862683  0.76060743  0.88473905
   0.83435488  0.24187306  0.87754777
   0.83531839  0.76229845  0.87852985
   0.16762318  0.24729244  0.54377676
   0.33625073  0.04684712  0.98913278
   0.00220478  0.00151441  0.27715981
   0.33314279  0.00078621  0.27112546
   0.88480137  0.00207731  0.05074301
   0.00489964  0.00233666  0.59626747
   0.66248992  0.00107007  0.93440106
Direct configuration=     4
   0.00153598  0.26019501  0.23179298
   0.16356272  0.00031576  0.23328741
   0.15826751  0.27226682  0.05207895
   0.00193476  0.74112996  0.22993980
   0.17898524  0.50002248  0.21201827
   0.16092768  0.72418251  0.05199858
   0.33364674  0.23973539  0.22054779
   0.50188345  0.00062907  0.21654082
   0.50465353  0.28810756  0.05331923
   0.33376325  0.75971613  0.22368296
   0.47667722  0.50016241  0.22215559
   0.50228988  0.71075913  0.05301694
   0.84383298  0.00130116  0.21635780
   0.84470828  0.25246715  0.05245616
   0.66831371  0.70734504  0.21519280
   0.84948813  0.50154444  0.21041098
   0.84423708  0.75050164  0.05247760
   0.00268933  0.24905956  0.56174779
   0.17526022  0.00142130  0.55055726
   0.16628581  0.29743465  0.38710768
   0.00245381  0.75504105  0.56081798
   0.15809352  0.50126578  0.57647376
   0.16599083  0.70406297  0.38715696
   0.33493230  0.27639060  0.54621175
   0.48542194  0.00154936  0.54993628
   0.50738249  0.28249195  0.38509658
   0.33469433  0.72751049  0.54810471
   0.50091407  0.50155610  0.57071416
   0.50731229  0.71948384  0.38528426
   0.66710035  0.28185032  0.55802037
   0.83958411  0.00228451  0.55917857
   0.82967437  0.27448325  0.38623802
   0.66751129  0.72284931  0.55743862
   0.84997610  0.50248262  0.54481112
   0.82994998  0.72985328  0.38563740
   0.00054454  0.27331098  0.87525432
   0.19944748  0.00080810  0.89219562
   0.19243229  0.23878949  0.72038464
   0.00238028  0.72575946  0.87789739
   0.16584591  0.49684319  0.87034769
   0.18878127  0.76155324  0.72079954
   0.33608327  0.27692721  0.90374347
   0.48124476  0.00092066  0.90062719
   0.48027100  0.23964450  0.72045316
   0.33508612  0.71241363  0.89527802
   0.51780436  0.49946648  0.86688723
   0.48328327  0.76164542  0.72069998
   0.66662833  0.24241810  0.88951201
   0.83443701  0.00122318  0.89061968
   0.83005673  0.29385064  0.71912065
   0.66608945  0.75776134  0.89017964
   0.82309685  0.50113658  0.90178101
   0.83098690  0.71198395  0.71945562
   0.66885130  0.29542619  0.21591892
   0.99615830  0.50282056  0.04912751
   0.33277380  0.50237980  0.05549475
   0.66821996  0.50193218  0.04753494
   0.99469705  0.50088875  0.38143163
   0.33727768  0.50114470  0.37927835
   0.66826936  0.50119725  0.38538291
   0.99716762  0.50417229  0.71236524
   0.33247678  0.00153633  0.70572456
   0.33307980  0.50387467  0.71521346
   0.66729987  0.50479405  0.71335528
   0.16589470  0.24351568  0.21425993
   0.16622783  0.75900447  0.21508633
   0.50369208  0.24070017  0.21389529
   0.50302946  0.76245651  0.21458053
   0.83055618  0.24241716  0.21728346
   0.83014471  0.76062053  0.21755085
   0.16740416  0.75721232  0.54395410
   0.50344400  0.24042584  0.54394962
   0.50373695  0.76363107  0.54451835
   0.83056457  0.23884557  0.54871106
   0.83087833  0.76623805  0.54808007
   0.16302333  0.24837365  0.88221506
   0.16629305  0.76611101  0.88495336
   0.50097038  0.24986778  0.88205714
   0.49862634  0.76060698  0.88474254
   0.83435507  0.24187404  0.87755308
   0.83531816  0.76230155  0.87853597
   0.16762338  0.24729332  0.54378130
   0.33625160  0.04684592  0.98913827
   0.00220398  0.00151366  0.27716572
   0.33314096  0.00078658  0.27113079
   0.88479951  0.00207754  0.05074838
   0.00489982  0.00233619  0.59627077
   0.66248896  0.00107243  0.93440514
Direct configuration=     5
   0.00153561  0.26019519  0.23179808
   0.16356207  0.00031684  0.23329319
   0.15826789  0.27226721  0.05208460
   0.00193428  0.74113239  0.22994545
   0.17898421  0.50002414  0.21202372
   0.16092604  0.72418408  0.05200378
   0.33364767  0.23973464  0.22055387
   0.50188272  0.00062951  0.21654525
   0.50465300  0.28810792  0.05332541
   0.33376383  0.75971847  0.22368823
   0.47667862  0.50016248  0.22216198
   0.50229071  0.71076080  0.05302364
   0.84383157  0.00130108  0.21636181
   0.84470746  0.25246551  0.05246214
   0.66831235  0.70734591  0.21519877
   0.84948751  0.50154476  0.21041484
   0.84423724  0.75050328  0.05248308
   0.00268987  0.24905772  0.56175327
   0.17526001  0.00142152  0.55056223
   0.16628470  0.29743371  0.38711081
   0.00245301  0.75504293  0.56082250
   0.15809308  0.50126616  0.57647810
   0.16598975  0.70406292  0.38716124
   0.33493261  0.27638821  0.54621484
   0.48542183  0.00154881  0.54994040
   0.50738331  0.28249138  0.38510104
   0.33469465  0.72751214  0.54810961
   0.50091400  0.50155666  0.57071625
   0.50731295  0.71948550  0.38528719
   0.66709961  0.28184715  0.55802459
   0.83958430  0.00228605  0.55918514
   0.82967391  0.27448263  0.38624217
   0.66751107  0.72285264  0.55744068
   0.84997645  0.50248251  0.54481608
   0.82994925  0.72985348  0.38564179
   0.00054535  0.27331090  0.87525996
   0.19944716  0.00080792  0.89219878
   0.19243292  0.23878894  0.72038883
   0.00238053  0.72576156  0.87790346
   0.16584630  0.49684427  0.87035509
   0.18878048  0.76155497  0.72080350
   0.33608360  0.27692410  0.90374918
   0.48124547  0.00092140  0.90063029
   0.48026929  0.23964108  0.72045690
   0.33508602  0.71241806  0.89528148
   0.51780251  0.49946752  0.86689281
   0.48328372  0.76164877  0.72070343
   0.66662809  0.24241837  0.88951749
   0.83443581  0.00122488  0.89062494
   0.83005842  0.29384759  0.71912521
   0.66608908  0.75776446  0.89018536
   0.82309674  0.50113750  0.90178836
   0.83098781  0.71198761  0.71946070
   0.66884973  0.29542699  0.21592357
   0.99615852  0.50282126  0.04913179
   0.33277325  0.50238031  0.05549966
   0.66821931  0.50193220  0.04754043
   0.99469695  0.50088875  0.38143710
   0.33727748  0.50114379  0.37928371
   0.66826908  0.50119738  0.38538804
   0.99716765  0.50417280  0.71237051
   0.33247677  0.00153650  0.70572980
   0.33308015  0.50387506  0.71521901
   0.66729972  0.50479413  0.71336080
   0.16589396  0.24351559  0.21426422
   0.16622675  0.75900603  0.21508928
   0.50369133  0.24070124  0.21390097
   0.50302896  0.76245717  0.21458602
   0.83055546  0.24241769  0.21729027
   0.83014439  0.76062060  0.21755621
   0.16740450  0.75721378  0.54395953
   0.50344303  0.24042441  0.54395706
   0.50373714  0.76362950  0.54452309
   0.83056365  0.23884619  0.54871807
   0.83087867  0.76623902  0.54808690
   0.16302375  0.24837324  0.88221856
   0.16629225  0.76611175  0.88495781
   0.50097095  0.24986883  0.88206235
   0.49862584  0.76060658  0.88474616
   0.83435530  0.24187511  0.87755837
   0.83531792  0.76230465  0.87854202
   0.16762356  0.24729414  0.54378580
   0.33625248  0.04684475  0.98914353
   0.00220317  0.00151279  0.27717160
   0.33313910  0.00078691  0.27113604
   0.88479758  0.00207778  0.05075374
   0.00489999  0.00233584  0.59627410
   0.66248809  0.00107479  0.93440919
Direct configuration=     6
   0.00153528  0.26019555  0.23180313
   0.16356141  0.00031801  0.23329887
   0.15826823  0.27226774  0.05209047
   0.00193378  0.74113454  0.22995103
   0.17898302  0.50002582  0.21202904
   0.16092439  0.72418541  0.05200914
   0.33364844  0.23973393  0.22055998
   0.50188203  0.00063003  0.21654968
   0.50465247  0.28810859  0.05333154
   0.33376429  0.75972068  0.22369348
   0.47668004  0.50016256  0.22216836
   0.50229150  0.71076223  0.05303029
   0.84383010  0.00130108  0.21636584
   0.84470667  0.25246400  0.05246833
   0.66831112  0.70734655  0.21520469
   0.84948696  0.50154503  0.21041865
   0.84423737  0.75050486  0.05248866
   0.00269053  0.24905586  0.56175860
   0.17525986  0.00142173  0.55056706
   0.16628355  0.29743283  0.38711402
   0.00245229  0.75504478  0.56082698
   0.15809268  0.50126655  0.57648236
   0.16598857  0.70406278  0.38716559
   0.33493285  0.27638597  0.54621789
   0.48542172  0.00154837  0.54994442
   0.50738411  0.28249085  0.38510559
   0.33469494  0.72751365  0.54811443
   0.50091404  0.50155728  0.57071838
   0.50731361  0.71948700  0.38529017
   0.66709887  0.28184422  0.55802885
   0.83958444  0.00228766  0.55919164
   0.82967350  0.27448216  0.38624628
   0.66751085  0.72285569  0.55744281
   0.84997677  0.50248233  0.54482093
   0.82994864  0.72985353  0.38564613
   0.00054619  0.27331092  0.87526556
   0.19944689  0.00080769  0.89220189
   0.19243359  0.23878841  0.72039280
   0.00238078  0.72576351  0.87790951
   0.16584669  0.49684554  0.87036246
   0.18877973  0.76155666  0.72080721
   0.33608387  0.27692124  0.90375497
   0.48124619  0.00092215  0.90063337
   0.48026761  0.23963787  0.72046057
   0.33508589  0.71242229  0.89528500
   0.51780081  0.49946862  0.86689824
   0.48328422  0.76165198  0.72070675
   0.66662782  0.24241876  0.88952300
   0.83443461  0.00122662  0.89063016
   0.83005993  0.29384479  0.71912970
   0.66608871  0.75776744  0.89019102
   0.82309659  0.50113839  0.90179569
   0.83098864  0.71199105  0.71946562
   0.66884828  0.29542793  0.21592820
   0.99615884  0.50282198  0.04913603
   0.33277266  0.50238086  0.05550451
   0.66821863  0.50193225  0.04754595
   0.99469689  0.50088877  0.38144260
   0.33727725  0.50114290  0.37928914
   0.66826881  0.50119752  0.38539318
   0.99716769  0.50417332  0.71237585
   0.33247677  0.00153665  0.70573505
   0.33308051  0.50387544  0.71522459
   0.66729957  0.50479421  0.71336632
   0.16589316  0.24351533  0.21426841
   0.16622567  0.75900781  0.21509222
   0.50369067  0.24070209  0.21390670
   0.50302852  0.76245800  0.21459149
   0.83055465  0.24241815  0.21729718
   0.83014401  0.76062086  0.21756163
   0.16740480  0.75721535  0.54396493
   0.50344209  0.24042279  0.54396448
   0.50373740  0.76362807  0.54452776
   0.83056271  0.23884662  0.54872514
   0.83087902  0.76624022  0.54809372
   0.16302414  0.24837267  0.88222215
   0.16629141  0.76611269  0.88496229
   0.50097154  0.24986963  0.88206755
   0.49862532  0.76060638  0.88474994
   0.83435561  0.24187611  0.87756364
   0.83531772  0.76230791  0.87854800
   0.16762368  0.24729483  0.54379020
   0.33625340  0.04684356  0.98914877
   0.00220234  0.00151183  0.27717754
   0.33313720  0.00078722  0.27114129
   0.88479571  0.00207801  0.05075911
   0.00490025  0.00233558  0.59627755
   0.66248728  0.00107711  0.93441332
Direct configuration=     7
   0.00153498  0.26019590  0.23180809
   0.16356076  0.00031921  0.23330446
   0.15826860  0.27226819  0.05209633
   0.00193322  0.74113659  0.22995653
   0.17898173  0.50002752  0.21203428
   0.16092282  0.72418672  0.05201448
   0.33364906  0.23973322  0.22056611
   0.50188137  0.00063056  0.21655412
   0.50465193  0.28810935  0.05333742
   0.33376463  0.75972283  0.22369867
   0.47668154  0.50016266  0.22217472
   0.50229226  0.71076363  0.05303672
   0.84382858  0.00130112  0.21636989
   0.84470586  0.25246254  0.05247456
   0.66831005  0.70734710  0.21521055
   0.84948635  0.50154527  0.21042249
   0.84423741  0.75050651  0.05249422
   0.00269123  0.24905387  0.56176379
   0.17525973  0.00142190  0.55057174
   0.16628244  0.29743183  0.38711726
   0.00245161  0.75504673  0.56083142
   0.15809241  0.50126697  0.57648651
   0.16598734  0.70406278  0.38716996
   0.33493310  0.27638371  0.54622093
   0.48542163  0.00154802  0.54994836
   0.50738490  0.28249023  0.38511027
   0.33469528  0.72751518  0.54811918
   0.50091431  0.50155797  0.57072066
   0.50731428  0.71948848  0.38529327
   0.66709813  0.28184157  0.55803330
   0.83958451  0.00228927  0.55919813
   0.82967312  0.27448169  0.38625039
   0.66751063  0.72285842  0.55744519
   0.84997687  0.50248211  0.54482579
   0.82994811  0.72985360  0.38565045
   0.00054695  0.27331079  0.87527110
   0.19944667  0.00080752  0.89220497
   0.19243421  0.23878787  0.72039665
   0.00238095  0.72576557  0.87791549
   0.16584717  0.49684686  0.87036977
   0.18877895  0.76155831  0.72081077
   0.33608412  0.27691839  0.90376072
   0.48124695  0.00092297  0.90063642
   0.48026610  0.23963494  0.72046422
   0.33508578  0.71242659  0.89528848
   0.51779931  0.49946976  0.86690341
   0.48328492  0.76165496  0.72070997
   0.66662752  0.24241929  0.88952842
   0.83443341  0.00122841  0.89063529
   0.83006113  0.29384216  0.71913415
   0.66608837  0.75777026  0.89019649
   0.82309634  0.50113922  0.90180275
   0.83098921  0.71199434  0.71947040
   0.66884695  0.29542890  0.21593283
   0.99615906  0.50282265  0.04914033
   0.33277210  0.50238137  0.05550944
   0.66821798  0.50193230  0.04755149
   0.99469676  0.50088880  0.38144809
   0.33727705  0.50114199  0.37929449
   0.66826856  0.50119765  0.38539832
   0.99716771  0.50417382  0.71238113
   0.33247676  0.00153680  0.70574028
   0.33308086  0.50387583  0.71523014
   0.66729945  0.50479428  0.71337181
   0.16589236  0.24351506  0.21427254
   0.16622463  0.75900966  0.21509522
   0.50369002  0.24070290  0.21391251
   0.50302806  0.76245885  0.21459696
   0.83055379  0.24241868  0.21730419
   0.83014358  0.76062117  0.21756709
   0.16740507  0.75721692  0.54397032
   0.50344112  0.24042112  0.54397184
   0.50373767  0.76362667  0.54453236
   0.83056183  0.23884701  0.54873224
   0.83087942  0.76624150  0.54810049
   0.16302454  0.24837207  0.88222584
   0.16629058  0.76611371  0.88496664
   0.50097213  0.24987026  0.88207279
   0.49862476  0.76060622  0.88475391
   0.83435600  0.24187718  0.87756897
   0.83531753  0.76231120  0.87855398
   0.16762378  0.24729546  0.54379452
   0.33625432  0.04684242  0.98915391
   0.00220152  0.00151076  0.27718347
   0.33313526  0.00078748  0.27114647
   0.88479383  0.00207824  0.05076455
   0.00490057  0.00233544  0.59628103
   0.66248653  0.00107940  0.93441750
Direct configuration=     8
   0.00153468  0.26019625  0.23181299
   0.16356010  0.00032043  0.23331001
   0.15826896  0.27226858  0.05210209
   0.00193261  0.74113856  0.22996194
   0.17898033  0.50002925  0.21203936
   0.16092128  0.72418803  0.05201972
   0.33364955  0.23973248  0.22057224
   0.50188074  0.00063109  0.21655860
   0.50465141  0.28811027  0.05334293
   0.33376488  0.75972494  0.22370382
   0.47668310  0.50016280  0.22218105
   0.50229300  0.71076495  0.05304283
   0.84382703  0.00130119  0.21637396
   0.84470505  0.25246112  0.05248071
   0.66830912  0.70734755  0.21521636
   0.84948573  0.50154551  0.21042633
   0.84423737  0.75050821  0.05249961
   0.00269192  0.24905176  0.56176887
   0.17525964  0.00142204  0.55057634
   0.16628132  0.29743072  0.38712066
   0.00245091  0.75504877  0.56083586
   0.15809221  0.50126741  0.57649061
   0.16598604  0.70406293  0.38717445
   0.33493340  0.27638149  0.54622400
   0.48542156  0.00154774  0.54995225
   0.50738572  0.28248950  0.38511520
   0.33469570  0.72751669  0.54812388
   0.50091499  0.50155874  0.57072325
   0.50731499  0.71948998  0.38529659
   0.66709740  0.28183936  0.55803807
   0.83958453  0.00229086  0.55920462
   0.82967272  0.27448122  0.38625461
   0.66751040  0.72286067  0.55744793
   0.84997671  0.50248184  0.54483073
   0.82994763  0.72985370  0.38565484
   0.00054760  0.27331055  0.87527653
   0.19944653  0.00080741  0.89220802
   0.19243484  0.23878727  0.72040039
   0.00238104  0.72576770  0.87792137
   0.16584769  0.49684824  0.87037700
   0.18877820  0.76155999  0.72081422
   0.33608438  0.27691561  0.90376643
   0.48124772  0.00092385  0.90063944
   0.48026475  0.23963230  0.72046787
   0.33508572  0.71243089  0.89529194
   0.51779819  0.49947097  0.86690812
   0.48328579  0.76165771  0.72071310
   0.66662720  0.24242001  0.88953368
   0.83443220  0.00123027  0.89064033
   0.83006189  0.29383995  0.71913858
   0.66608807  0.75777285  0.89020170
   0.82309592  0.50114000  0.90180949
   0.83098940  0.71199727  0.71947505
   0.66884574  0.29542990  0.21593746
   0.99615940  0.50282333  0.04914458
   0.33277151  0.50238192  0.05551430
   0.66821730  0.50193237  0.04755707
   0.99469671  0.50088885  0.38145360
   0.33727679  0.50114109  0.37929990
   0.66826832  0.50119780  0.38540346
   0.99716775  0.50417434  0.71238647
   0.33247675  0.00153693  0.70574553
   0.33308120  0.50387622  0.71523572
   0.66729933  0.50479436  0.71337729
   0.16589154  0.24351475  0.21427663
   0.16622361  0.75901160  0.21509828
   0.50368940  0.24070364  0.21391842
   0.50302762  0.76245974  0.21460245
   0.83055289  0.24241925  0.21731131
   0.83014312  0.76062157  0.21757262
   0.16740531  0.75721852  0.54397564
   0.50344012  0.24041938  0.54397908
   0.50373792  0.76362533  0.54453685
   0.83056102  0.23884733  0.54873931
   0.83087991  0.76624289  0.54810717
   0.16302494  0.24837145  0.88222967
   0.16628975  0.76611478  0.88497091
   0.50097270  0.24987067  0.88207810
   0.49862415  0.76060614  0.88475808
   0.83435648  0.24187829  0.87757438
   0.83531738  0.76231454  0.87855998
   0.16762384  0.24729605  0.54379872
   0.33625517  0.04684124  0.98915895
   0.00220071  0.00150959  0.27718940
   0.33313330  0.00078768  0.27115161
   0.88479199  0.00207849  0.05077007
   0.00490096  0.00233543  0.59628454
   0.66248585  0.00108164  0.93442180
Direct configuration=     9
   0.00153440  0.26019652  0.23181780
   0.16355942  0.00032163  0.23331548
   0.15826935  0.27226876  0.05210772
   0.00193197  0.74114051  0.22996727
   0.17897881  0.50003101  0.21204435
   0.16091981  0.72418945  0.05202481
   0.33364986  0.23973169  0.22057836
   0.50188018  0.00063160  0.21656309
   0.50465090  0.28811121  0.05334807
   0.33376497  0.75972706  0.22370889
   0.47668480  0.50016297  0.22218734
   0.50229372  0.71076631  0.05304857
   0.84382541  0.00130127  0.21637808
   0.84470421  0.25245968  0.05248680
   0.66830838  0.70734795  0.21522211
   0.84948503  0.50154574  0.21043019
   0.84423721  0.75051007  0.05250486
   0.00269263  0.24904949  0.56177384
   0.17525960  0.00142213  0.55058081
   0.16628023  0.29742942  0.38712426
   0.00245024  0.75505095  0.56084030
   0.15809212  0.50126787  0.57649466
   0.16598471  0.70406329  0.38717909
   0.33493375  0.27637918  0.54622709
   0.48542153  0.00154754  0.54995608
   0.50738658  0.28248856  0.38512046
   0.33469619  0.72751831  0.54812853
   0.50091607  0.50155957  0.57072615
   0.50731574  0.71949158  0.38530020
   0.66709668  0.28183757  0.55804320
   0.83958446  0.00229240  0.55921110
   0.82967231  0.27448068  0.38625899
   0.66751019  0.72286245  0.55745111
   0.84997625  0.50248154  0.54483580
   0.82994720  0.72985390  0.38565937
   0.00054815  0.27331003  0.87528185
   0.19944641  0.00080732  0.89221107
   0.19243540  0.23878661  0.72040415
   0.00238103  0.72577003  0.87792713
   0.16584829  0.49684955  0.87038416
   0.18877737  0.76156170  0.72081768
   0.33608469  0.27691279  0.90377206
   0.48124857  0.00092477  0.90064245
   0.48026368  0.23962992  0.72047162
   0.33508572  0.71243532  0.89529535
   0.51779743  0.49947219  0.86691239
   0.48328696  0.76166024  0.72071624
   0.66662685  0.24242086  0.88953876
   0.83443100  0.00123216  0.89064523
   0.83006219  0.29383803  0.71914308
   0.66608781  0.75777526  0.89020663
   0.82309535  0.50114072  0.90181583
   0.83098919  0.71199993  0.71947965
   0.66884470  0.29543090  0.21594209
   0.99615966  0.50282397  0.04914888
   0.33277095  0.50238242  0.05551923
   0.66821662  0.50193245  0.04756268
   0.99469660  0.50088891  0.38145909
   0.33727656  0.50114018  0.37930522
   0.66826808  0.50119794  0.38540857
   0.99716778  0.50417486  0.71239176
   0.33247673  0.00153707  0.70575075
   0.33308151  0.50387663  0.71524126
   0.66729925  0.50479443  0.71338270
   0.16589074  0.24351446  0.21428068
   0.16622263  0.75901358  0.21510142
   0.50368876  0.24070439  0.21392441
   0.50302715  0.76246064  0.21460793
   0.83055194  0.24241990  0.21731851
   0.83014263  0.76062200  0.21757820
   0.16740552  0.75722010  0.54398090
   0.50343905  0.24041763  0.54398616
   0.50373813  0.76362399  0.54454119