unknown system                          
           1
    11.636000    0.000000    0.000000
     0.000000    7.905000    0.000000
     0.000000    0.000000   11.636000
   O    La   Ti   Li
    54    10    18     6
Direct configuration=     1
   0.00201966  0.26056586  0.22584431
   0.16389755  0.00060143  0.22702973
   0.15891401  0.27324199  0.04621496
   0.00235034  0.74123371  0.22406002
   0.17966010  0.50022519  0.20666859
   0.16139499  0.72362327  0.04624007
   0.33407003  0.23970530  0.21472625
   0.50248175  0.00080085  0.21076721
   0.50489418  0.28796235  0.04749872
   0.33417386  0.76009910  0.21797093
   0.47706346  0.50037452  0.21613931
   0.50272866  0.71124246  0.04720404
   0.84435203  0.00154851  0.21060088
   0.84509577  0.25278852  0.04677227
   0.66872323  0.70753723  0.20954936
   0.84986783  0.50173270  0.20494694
   0.84440998  0.75057401  0.04682348
   0.00302671  0.24929944  0.55620997
   0.17551934  0.00153339  0.54451596
   0.16668162  0.29740955  0.38141998
   0.00278176  0.75509434  0.55543999
   0.15852669  0.50145894  0.57100251
   0.16620206  0.70454913  0.38144107
   0.33531017  0.27636024  0.54074710
   0.48578622  0.00164382  0.54397743
   0.50762194  0.28271689  0.37925957
   0.33503062  0.72768518  0.54239651
   0.50130076  0.50177902  0.56469588
   0.50767199  0.71958703  0.37944597
   0.66748435  0.28195588  0.55212117
   0.83992123  0.00241101  0.55351653
   0.83020541  0.27454274  0.38046252
   0.66786533  0.72301924  0.55166534
   0.85020314  0.50264034  0.53909013
   0.83047906  0.73009828  0.37992386
   0.00086921  0.27349645  0.86973135
   0.19982227  0.00105005  0.88684242
   0.19259166  0.23831974  0.71458928
   0.00272074  0.72608163  0.87252802
   0.16604849  0.49707809  0.86381960
   0.18921759  0.76234248  0.71510864
   0.33650817  0.27758374  0.89746512
   0.48128737  0.00120835  0.89466152
   0.48110502  0.23998794  0.71453165
   0.33550303  0.71230410  0.88958224
   0.51856644  0.49968127  0.86114287
   0.48372646  0.76174021  0.71487231
   0.66703457  0.24229004  0.88414954
   0.83497096  0.00141826  0.88509409
   0.83030317  0.29391689  0.71341565
   0.66642907  0.75842964  0.88465497
   0.82336460  0.50135272  0.89595133
   0.83125735  0.71218351  0.71377458
   0.66924207  0.29557793  0.21016040
   0.99637903  0.50316557  0.04333473
   0.33322574  0.50264264  0.04967070
   0.66845258  0.50219318  0.04173572
   0.99511514  0.50115045  0.37560493
   0.33765452  0.50130058  0.37346705
   0.66867582  0.50131369  0.37955629
   0.99741176  0.50434006  0.70668362
   0.33288148  0.00182335  0.69984299
   0.33338512  0.50405959  0.70941715
   0.66766254  0.50481735  0.70745661
   0.16639002  0.24404444  0.20840766
   0.16668336  0.75941927  0.20922715
   0.50407679  0.24079009  0.20808930
   0.50347159  0.76266040  0.20873105
   0.83097980  0.24270958  0.21148336
   0.83055238  0.76094365  0.21180474
   0.16766211  0.75731737  0.53829643
   0.50386703  0.24037274  0.53812444
   0.50408828  0.76358264  0.53865324
   0.83095539  0.23894453  0.54283647
   0.83116963  0.76628833  0.54230998
   0.16331083  0.24868779  0.87639166
   0.16665991  0.76636748  0.87920474
   0.50144205  0.25006531  0.87612779
   0.49901642  0.76101571  0.87884972
   0.83466941  0.24194452  0.87181529
   0.83553368  0.76255805  0.87277247
   0.16794962  0.24727850  0.53809893
   0.33655450  0.04770559  0.98339739
   0.00268806  0.00180664  0.27127209
   0.33353482  0.00101638  0.26559853
   0.88579202  0.00238610  0.04505148
   0.00519739  0.00249143  0.59068108
   0.66285769  0.00134603  0.93058956
Direct configuration=     2
   0.00202078  0.26056570  0.22585046
   0.16389754  0.00060122  0.22703440
   0.15891581  0.27323999  0.04622071
   0.00235068  0.74123310  0.22406527
   0.17965839  0.50022502  0.20667375
   0.16139560  0.72362417  0.04624560
   0.33407017  0.23970507  0.21473432
   0.50248164  0.00080086  0.21077279
   0.50489404  0.28796262  0.04750456
   0.33417353  0.76009747  0.21797520
   0.47706473  0.50037475  0.21614638
   0.50272950  0.71124226  0.04721018
   0.84435139  0.00154877  0.21060722
   0.84509545  0.25278897  0.04677881
   0.66872418  0.70753731  0.20955398
   0.84986771  0.50173279  0.20495434
   0.84441161  0.75057558  0.04682900
   0.00302739  0.24929982  0.55621593
   0.17551928  0.00153314  0.54452411
   0.16668226  0.29741047  0.38142723
   0.00278203  0.75509481  0.55544678
   0.15852773  0.50146009  0.57101011
   0.16620290  0.70454853  0.38144743
   0.33530999  0.27636030  0.54075316
   0.48578639  0.00164328  0.54398346
   0.50762306  0.28271757  0.37926690
   0.33503102  0.72768656  0.54240419
   0.50130261  0.50177984  0.56470302
   0.50767268  0.71958637  0.37945190
   0.66748548  0.28195431  0.55212786
   0.83992206  0.00241104  0.55352297
   0.83020543  0.27454135  0.38046967
   0.66786653  0.72302066  0.55167189
   0.85020375  0.50264070  0.53909487
   0.83047941  0.73009978  0.37992974
   0.00087049  0.27349586  0.86973892
   0.19982336  0.00104864  0.88685005
   0.19259169  0.23832111  0.71459708
   0.00272164  0.72608142  0.87253451
   0.16604998  0.49707795  0.86382712
   0.18921698  0.76234338  0.71511572
   0.33650878  0.27758447  0.89747186
   0.48128824  0.00120827  0.89466660
   0.48110447  0.23998779  0.71453778
   0.33550307  0.71230438  0.88958799
   0.51856557  0.49968095  0.86114728
   0.48372972  0.76174179  0.71487911
   0.66703554  0.24229089  0.88415604
   0.83497073  0.00141909  0.88510159
   0.83030452  0.29391712  0.71342252
   0.66642966  0.75842934  0.88466162
   0.82336585  0.50135364  0.89595854
   0.83125762  0.71218561  0.71378032
   0.66924224  0.29557667  0.21016779
   0.99637967  0.50316512  0.04334013
   0.33322558  0.50264227  0.04967651
   0.66845291  0.50219289  0.04174062
   0.99511567  0.50115089  0.37561031
   0.33765420  0.50130147  0.37347289
   0.66867597  0.50131409  0.37956133
   0.99741168  0.50433967  0.70669081
   0.33288256  0.00182376  0.69984916
   0.33338584  0.50405902  0.70942342
   0.66766279  0.50481663  0.70746176
   0.16638992  0.24404353  0.20841358
   0.16668378  0.75941916  0.20923143
   0.50407616  0.24079032  0.20809557
   0.50347159  0.76266003  0.20873635
   0.83097994  0.24270904  0.21149058
   0.83055348  0.76094414  0.21180839
   0.16766271  0.75731588  0.53830269
   0.50386692  0.24037274  0.53813185
   0.50408865  0.76358301  0.53866015
   0.83095589  0.23894424  0.54284382
   0.83117028  0.76628772  0.54231473
   0.16331111  0.24868801  0.87639867
   0.16666099  0.76636750  0.87920880
   0.50144141  0.25006635  0.87613341
   0.49901784  0.76101483  0.87885536
   0.83467021  0.24194554  0.87182293
   0.83553503  0.76255845  0.87277737
   0.16795047  0.24728014  0.53810657
   0.33655300  0.04770413  0.98340379
   0.00268765  0.00180651  0.27127879
   0.33353595  0.00101570  0.26560502
   0.88579109  0.00238750  0.04505970
   0.00519752  0.00249299  0.59068653
   0.66285706  0.00134403  0.93059384
Direct configuration=     3
   0.00202192  0.26056545  0.22585657
   0.16389753  0.00060101  0.22703904
   0.15891761  0.27323800  0.04622633
   0.00235101  0.74123247  0.22407047
   0.17965667  0.50022482  0.20667889
   0.16139623  0.72362514  0.04625105
   0.33407026  0.23970493  0.21474237
   0.50248154  0.00080096  0.21077825
   0.50489394  0.28796302  0.04751024
   0.33417314  0.76009583  0.21797946
   0.47706597  0.50037493  0.21615333
   0.50273037  0.71124194  0.04721628
   0.84435068  0.00154905  0.21061347
   0.84509515  0.25278946  0.04678526
   0.66872511  0.70753740  0.20955850
   0.84986760  0.50173290  0.20496160
   0.84441324  0.75057720  0.04683442
   0.00302804  0.24930025  0.55622186
   0.17551926  0.00153304  0.54453212
   0.16668287  0.29741136  0.38143426
   0.00278225  0.75509521  0.55545352
   0.15852867  0.50146124  0.57101749
   0.16620379  0.70454788  0.38145368
   0.33530978  0.27636038  0.54075911
   0.48578664  0.00164284  0.54398938
   0.50762422  0.28271826  0.37927415
   0.33503139  0.72768795  0.54241170
   0.50130442  0.50178067  0.56471008
   0.50767332  0.71958576  0.37945769
   0.66748670  0.28195272  0.55213448
   0.83992280  0.00241110  0.55352935
   0.83020544  0.27453988  0.38047673
   0.66786783  0.72302214  0.55167833
   0.85020437  0.50264106  0.53909961
   0.83047968  0.73010143  0.37993548
   0.00087176  0.27349525  0.86974645
   0.19982439  0.00104712  0.88685758
   0.19259165  0.23832253  0.71460485
   0.00272248  0.72608128  0.87254083
   0.16605145  0.49707798  0.86383456
   0.18921635  0.76234432  0.71512270
   0.33650925  0.27758518  0.89747853
   0.48128909  0.00120807  0.89467160
   0.48110397  0.23998752  0.71454383
   0.33550303  0.71230472  0.88959368
   0.51856471  0.49968085  0.86115169
   0.48373294  0.76174335  0.71488578
   0.66703650  0.24229173  0.88416241
   0.83497052  0.00142004  0.88510909
   0.83030589  0.29391730  0.71342927
   0.66643029  0.75842901  0.88466820
   0.82336707  0.50135461  0.89596567
   0.83125792  0.71218778  0.71378600
   0.66924244  0.29557543  0.21017507
   0.99638030  0.50316467  0.04334552
   0.33322541  0.50264193  0.04968231
   0.66845324  0.50219259  0.04174552
   0.99511622  0.50115134  0.37561568
   0.33765387  0.50130238  0.37347873
   0.66867610  0.50131449  0.37956636
   0.99741160  0.50433929  0.70669795
   0.33288362  0.00182417  0.69985531
   0.33338656  0.50405845  0.70942966
   0.66766303  0.50481591  0.70746688
   0.16638983  0.24404253  0.20841951
   0.16668418  0.75941900  0.20923569
   0.50407555  0.24079044  0.20810185
   0.50347162  0.76265970  0.20874167
   0.83098006  0.24270838  0.21149783
   0.83055454  0.76094472  0.21181211
   0.16766334  0.75731442  0.53830896
   0.50386683  0.24037274  0.53813930
   0.50408902  0.76358339  0.53866709
   0.83095638  0.23894382  0.54285124
   0.83117081  0.76628724  0.54231948
   0.16331144  0.24868812  0.87640568
   0.16666210  0.76636770  0.87921288
   0.50144082  0.25006717  0.87613897
   0.49901928  0.76101395  0.87886107
   0.83467102  0.24194656  0.87183062
   0.83553638  0.76255895  0.87278232
   0.16795134  0.24728177  0.53811425
   0.33655151  0.04770279  0.98341008
   0.00268727  0.00180630  0.27128553
   0.33353710  0.00101497  0.26561138
   0.88579012  0.00238893  0.04506768
   0.00519773  0.00249451  0.59069214
   0.66285643  0.00134199  0.93059708
Direct configuration=     4
   0.00202309  0.26056514  0.22586264
   0.16389753  0.00060081  0.22704379
   0.15891942  0.27323621  0.04623184
   0.00235133  0.74123177  0.22407562
   0.17965491  0.50022455  0.20668408
   0.16139688  0.72362592  0.04625641
   0.33407026  0.23970494  0.21475044
   0.50248133  0.00080115  0.21078363
   0.50489386  0.28796364  0.04751574
   0.33417271  0.76009410  0.21798376
   0.47706726  0.50037503  0.21616017
   0.50273127  0.71124135  0.04722230
   0.84435003  0.00154936  0.21061960
   0.84509486  0.25279005  0.04679167
   0.66872601  0.70753727  0.20956291
   0.84986742  0.50173301  0.20496876
   0.84441486  0.75057879  0.04683979
   0.00302871  0.24930084  0.55622778
   0.17551934  0.00153310  0.54454018
   0.16668347  0.29741231  0.38144113
   0.00278246  0.75509545  0.55546027
   0.15852956  0.50146239  0.57102467
   0.16620476  0.70454706  0.38145987
   0.33530956  0.27636056  0.54076499
   0.48578680  0.00164248  0.54399540
   0.50762533  0.28271915  0.37928140
   0.33503176  0.72768930  0.54241912
   0.50130613  0.50178150  0.56471705
   0.50767385  0.71958498  0.37946342
   0.66748797  0.28195135  0.55214110
   0.83992358  0.00241119  0.55353578
   0.83020553  0.27453853  0.38048372
   0.66786921  0.72302343  0.55168472
   0.85020497  0.50264141  0.53910442
   0.83047993  0.73010300  0.37994109
   0.00087298  0.27349491  0.86975397
   0.19982555  0.00104559  0.88686494
   0.19259162  0.23832404  0.71461265
   0.00272323  0.72608092  0.87254702
   0.16605290  0.49707807  0.86384196
   0.18921576  0.76234527  0.71512965
   0.33650966  0.27758595  0.89748513
   0.48128983  0.00120783  0.89467653
   0.48110339  0.23998717  0.71454990
   0.33550299  0.71230504  0.88959927
   0.51856380  0.49968089  0.86115617
   0.48373603  0.76174487  0.71489244
   0.66703743  0.24229271  0.88416873
   0.83497028  0.00142113  0.88511678
   0.83030728  0.29391762  0.71343596
   0.66643094  0.75842848  0.88467481
   0.82336830  0.50135563  0.89597269
   0.83125826  0.71218984  0.71379169
   0.66924265  0.29557441  0.21018222
   0.99638090  0.50316422  0.04335092
   0.33322526  0.50264159  0.04968813
   0.66845358  0.50219229  0.04175042
   0.99511674  0.50115178  0.37562105
   0.33765355  0.50130330  0.37348456
   0.66867624  0.50131489  0.37957140
   0.99741149  0.50433889  0.70670510
   0.33288469  0.00182459  0.69986147
   0.33338728  0.50405788  0.70943591
   0.66766328  0.50481520  0.70747202
   0.16638975  0.24404151  0.20842545
   0.16668455  0.75941876  0.20923995
   0.50407495  0.24079050  0.20810816
   0.50347168  0.76265939  0.20874702
   0.83098020  0.24270765  0.21150504
   0.83055559  0.76094533  0.21181589
   0.16766399  0.75731298  0.53831526
   0.50386673  0.24037278  0.53814682
   0.50408939  0.76358373  0.53867406
   0.83095685  0.23894334  0.54285873
   0.83117124  0.76628684  0.54232422
   0.16331181  0.24868816  0.87641270
   0.16666323  0.76636802  0.87921695
   0.50144028  0.25006782  0.87614449
   0.49902075  0.76101303  0.87886686
   0.83467183  0.24194762  0.87183837
   0.83553772  0.76255948  0.87278730
   0.16795224  0.24728341  0.53812196
   0.33655005  0.04770156  0.98341625
   0.00268691  0.00180605  0.27129229
   0.33353828  0.00101418  0.26561760
   0.88578912  0.00239040  0.04507544
   0.00519800  0.00249601  0.59069790
   0.66285582  0.00133994  0.93059933
Direct configuration=     5
   0.00202433  0.26056471  0.22586869
   0.16389754  0.00060056  0.22704851
   0.15892123  0.27323432  0.04623722
   0.00235172  0.74123110  0.22408074
   0.17965310  0.50022424  0.20668927
   0.16139756  0.72362688  0.04626171
   0.33407018  0.23970503  0.21475851
   0.50248112  0.00080136  0.21078890
   0.50489382  0.28796426  0.04752107
   0.33417221  0.76009239  0.21798806
   0.47706855  0.50037509  0.21616691
   0.50273218  0.71124078  0.04722828
   0.84434929  0.00154965  0.21062568
   0.84509457  0.25279070  0.04679801
   0.66872689  0.70753725  0.20956725
   0.84986726  0.50173314  0.20497581
   0.84441648  0.75058044  0.04684510
   0.00302943  0.24930148  0.55623367
   0.17551950  0.00153330  0.54454814
   0.16668403  0.29741312  0.38144794
   0.00278270  0.75509562  0.55546699
   0.15853039  0.50146355  0.57103166
   0.16620578  0.70454633  0.38146609
   0.33530936  0.27636068  0.54077082
   0.48578700  0.00164222  0.54400137
   0.50762649  0.28271993  0.37928874
   0.33503213  0.72769074  0.54242642
   0.50130780  0.50178233  0.56472402
   0.50767435  0.71958439  0.37946916
   0.66748925  0.28194991  0.55214772
   0.83992428  0.00241127  0.55354217
   0.83020561  0.27453703  0.38049069
   0.66787062  0.72302484  0.55169104
   0.85020558  0.50264178  0.53910930
   0.83048011  0.73010479  0.37994662
   0.00087420  0.27349445  0.86976148
   0.19982663  0.00104396  0.88687221
   0.19259149  0.23832556  0.71462059
   0.00272395  0.72608072  0.87255307
   0.16605435  0.49707811  0.86384935
   0.18921512  0.76234628  0.71513664
   0.33651004  0.27758662  0.89749168
   0.48129057  0.00120745  0.89468137
   0.48110289  0.23998668  0.71455608
   0.33550297  0.71230554  0.88960483
   0.51856287  0.49968102  0.86116070
   0.48373910  0.76174641  0.71489910
   0.66703829  0.24229370  0.88417491
   0.83497006  0.00142236  0.88512444
   0.83030869  0.29391777  0.71344277
   0.66643160  0.75842791  0.88468136
   0.82336950  0.50135667  0.89597967
   0.83125863  0.71219207  0.71379752
   0.66924290  0.29557332  0.21018929
   0.99638150  0.50316376  0.04335633
   0.33322510  0.50264128  0.04969395
   0.66845392  0.50219198  0.04175534
   0.99511729  0.50115222  0.37562644
   0.33765319  0.50130424  0.37349042
   0.66867636  0.50131530  0.37957645
   0.99741143  0.50433849  0.70671222
   0.33288574  0.00182499  0.69986764
   0.33338798  0.50405730  0.70944217
   0.66766349  0.50481449  0.70747718
   0.16638970  0.24404049  0.20843141
   0.16668488  0.75941838  0.20924420
   0.50407436  0.24079055  0.20811447
   0.50347175  0.76265905  0.20875237
   0.83098035  0.24270685  0.21151222
   0.83055661  0.76094595  0.21181972
   0.16766465  0.75731151  0.53832156
   0.50386663  0.24037290  0.53815433
   0.50408976  0.76358396  0.53868104
   0.83095733  0.23894280  0.54286625
   0.83117160  0.76628649  0.54232893
   0.16331224  0.24868825  0.87641965
   0.16666440  0.76636843  0.87922101
   0.50143978  0.25006834  0.87614996
   0.49902223  0.76101206  0.87887271
   0.83467262  0.24194872  0.87184617
   0.83553902  0.76256004  0.87279226
   0.16795315  0.24728510  0.53812966
   0.33654860  0.04770044  0.98342234
   0.00268661  0.00180573  0.27129910
   0.33353948  0.00101331  0.26562373
   0.88578812  0.00239190  0.04508299
   0.00519837  0.00249747  0.59070381
   0.66285516  0.00133791  0.93060062
Direct configuration=     6
   0.00202563  0.26056395  0.22587474
   0.16389756  0.00060022  0.22705323
   0.15892305  0.27323220  0.04624241
   0.00235219  0.74123065  0.22408585
   0.17965130  0.50022392  0.20669446
   0.16139826  0.72362812  0.04626688
   0.33407005  0.23970500  0.21476656
   0.50248089  0.00080155  0.21079407
   0.50489381  0.28796478  0.04752618
   0.33417171  0.76009090  0.21799238
   0.47706986  0.50037513  0.21617363
   0.50273311  0.71124030  0.04723418
   0.84434850  0.00154989  0.21063170
   0.84509430  0.25279121  0.04680419
   0.66872767  0.70753733  0.20957157
   0.84986707  0.50173331  0.20498282
   0.84441809  0.75058233  0.04685033
   0.00303014  0.24930196  0.55623957
   0.17551970  0.00153364  0.54455599
   0.16668456  0.29741371  0.38145466
   0.00278290  0.75509597  0.55547369
   0.15853113  0.50146471  0.57103852
   0.16620685  0.70454576  0.38147230
   0.33530926  0.27636065  0.54077657
   0.48578727  0.00164203  0.54400729
   0.50762773  0.28272059  0.37929617
   0.33503259  0.72769238  0.54243358
   0.50130948  0.50178316  0.56473095
   0.50767485  0.71958402  0.37947491
   0.66749049  0.28194838  0.55215433
   0.83992496  0.00241132  0.55354852
   0.83020568  0.27453534  0.38049765
   0.66787203  0.72302640  0.55169727
   0.85020615  0.50264218  0.53911424
   0.83048018  0.73010686  0.37995209
   0.00087542  0.27349378  0.86976896
   0.19982773  0.00104234  0.88687947
   0.19259129  0.23832692  0.71462868
   0.00272465  0.72608071  0.87255898
   0.16605572  0.49707806  0.86385675
   0.18921444  0.76234750  0.71514370
   0.33651039  0.27758705  0.89749826
   0.48129129  0.00120699  0.89468621
   0.48110245  0.23998590  0.71456236
   0.33550297  0.71230628  0.88961042
   0.51856196  0.49968122  0.86116526
   0.48374216  0.76174811  0.71490574
   0.66703907  0.24229452  0.88418094
   0.83496986  0.00142375  0.88513208
   0.83031012  0.29391772  0.71344968
   0.66643227  0.75842747  0.88468787
   0.82337071  0.50135771  0.89598656
   0.83125903  0.71219450  0.71380346
   0.66924314  0.29557219  0.21019634
   0.99638210  0.50316330  0.04336176
   0.33322493  0.50264098  0.04969979
   0.66845426  0.50219167  0.04176029
   0.99511786  0.50115266  0.37563184
   0.33765283  0.50130519  0.37349630
   0.66867648  0.50131571  0.37958152
   0.99741137  0.50433809  0.70671934
   0.33288678  0.00182540  0.69987381
   0.33338868  0.50405672  0.70944842
   0.66766370  0.50481378  0.70748233
   0.16638965  0.24403950  0.20843739
   0.16668515  0.75941787  0.20924843
   0.50407378  0.24079059  0.20812077
   0.50347184  0.76265867  0.20875773
   0.83098052  0.24270600  0.21151937
   0.83055762  0.76094659  0.21182360
   0.16766530  0.75731005  0.53832784
   0.50386653  0.24037312  0.53816179
   0.50409013  0.76358407  0.53868800
   0.83095782  0.23894223  0.54287380
   0.83117188  0.76628619  0.54233360
   0.16331271  0.24868843  0.87642654
   0.16666561  0.76636893  0.87922508
   0.50143934  0.25006874  0.87615540
   0.49902372  0.76101107  0.87887864
   0.83467339  0.24194989  0.87185401
   0.83554029  0.76256064  0.87279720
   0.16795407  0.24728681  0.53813733
   0.33654714  0.04769937  0.98342835
   0.00268639  0.00180534  0.27130597
   0.33354066  0.00101234  0.26562978
   0.88578716  0.00239343  0.04509031
   0.00519882  0.00249887  0.59070985
   0.66285446  0.00133590  0.93060097
Direct configuration=     7
   0.00202697  0.26056309  0.22588076
   0.16389759  0.00059982  0.22705797
   0.15892485  0.27323006  0.04624750
   0.00235273  0.74123021  0.22409094
   0.17964940  0.50022358  0.20669968
   0.16139895  0.72362941  0.04627197
   0.33406988  0.23970501  0.21477463
   0.50248062  0.00080175  0.21079916
   0.50489387  0.28796532  0.04753117
   0.33417119  0.76008946  0.21799671
   0.47707121  0.50037512  0.21618025
   0.50273408  0.71123979  0.04724006
   0.84434767  0.00155012  0.21063767
   0.84509404  0.25279181  0.04681029
   0.66872838  0.70753753  0.20957582
   0.84986691  0.50173350  0.20498969
   0.84441970  0.75058423  0.04685551
   0.00303087  0.24930253  0.55624546
   0.17551997  0.00153413  0.54456379
   0.16668505  0.29741423  0.38146133
   0.00278311  0.75509620  0.55548038
   0.15853182  0.50146589  0.57104521
   0.16620797  0.70454519  0.38147850
   0.33530922  0.27636060  0.54078229
   0.48578758  0.00164195  0.54401321
   0.50762900  0.28272112  0.37930368
   0.33503311  0.72769409  0.54244065
   0.50131109  0.50178399  0.56473788
   0.50767532  0.71958386  0.37948071
   0.66749167  0.28194677  0.55216097
   0.83992561  0.00241136  0.55355487
   0.83020577  0.27453346  0.38050462
   0.66787343  0.72302808  0.55170345
   0.85020674  0.50264259  0.53911927
   0.83048018  0.73010918  0.37995750
   0.00087663  0.27349303  0.86977646
   0.19982877  0.00104066  0.88688663
   0.19259099  0.23832833  0.71463686
   0.00272533  0.72608081  0.87256478
   0.16605707  0.49707801  0.86386413
   0.18921370  0.76234874  0.71515081
   0.33651070  0.27758742  0.89750476
   0.48129202  0.00120643  0.89469099
   0.48110211  0.23998500  0.71456868
   0.33550297  0.71230713  0.88961599
   0.51856103  0.49968153  0.86116989
   0.48374521  0.76174980  0.71491234
   0.66703979  0.24229539  0.88418684
   0.83496966  0.00142526  0.88513971
   0.83031155  0.29391748  0.71345670
   0.66643297  0.75842694  0.88469433
   0.82337189  0.50135879  0.89599339
   0.83125945  0.71219710  0.71380953
   0.66924337  0.29557099  0.21020329
   0.99638269  0.50316283  0.04336722
   0.33322476  0.50264070  0.04970565
   0.66845461  0.50219134  0.04176527
   0.99511844  0.50115309  0.37563726
   0.33765245  0.50130616  0.37350220
   0.66867659  0.50131612  0.37958659
   0.99741134  0.50433768  0.70672643
   0.33288782  0.00182580  0.69987999
   0.33338937  0.50405615  0.70945469
   0.66766390  0.50481308  0.70748752
   0.16638960  0.24403855  0.20844339
   0.16668538  0.75941723  0.20925266
   0.50407325  0.24079064  0.20812708
   0.50347194  0.76265827  0.20876309
   0.83098069  0.24270512  0.21152649
   0.83055860  0.76094722  0.21182753
   0.16766595  0.75730856  0.53833413
   0.50386644  0.24037345  0.53816925
   0.50409050  0.76358406  0.53869496
   0.83095831  0.23894164  0.54288138
   0.83117209  0.76628593  0.54233824
   0.16331325  0.24868866  0.87643334
   0.16666684  0.76636952  0.87922914
   0.50143895  0.25006900  0.87616082
   0.49902522  0.76101002  0.87888464
   0.83467415  0.24195110  0.87186190
   0.83554152  0.76256125  0.87280212
   0.16795500  0.24728858  0.53814498
   0.33654569  0.04769838  0.98343425
   0.00268624  0.00180488  0.27131287
   0.33354185  0.00101128  0.26563572
   0.88578619  0.00239499  0.04509740
   0.00519933  0.00250022  0.59071602
   0.66285375  0.00133394  0.93060040
Direct configuration=     8
   0.00202839  0.26056186  0.22588685
   0.16389762  0.00059936  0.22706273
   0.15892670  0.27322784  0.04625245
   0.00235337  0.74123002  0.22409608
   0.17964752  0.50022327  0.20670479
   0.16139971  0.72363081  0.04627687
   0.33406964  0.23970488  0.21478270
   0.50248033  0.00080192  0.21080419
   0.50489393  0.28796596  0.04753603
   0.33417064  0.76008823  0.21800104
   0.47707260  0.50037515  0.21618686
   0.50273502  0.71123918  0.04724585
   0.84434682  0.00155034  0.21064363
   0.84509383  0.25279221  0.04681635
   0.66872892  0.70753775  0.20958010
   0.84986662  0.50173371  0.20499665
   0.84442135  0.75058643  0.04686063
   0.00303165  0.24930292  0.55625141
   0.17552027  0.00153479  0.54457162
   0.16668549  0.29741464  0.38146790
   0.00278335  0.75509663  0.55548711
   0.15853245  0.50146708  0.57105185
   0.16620913  0.70454468  0.38148468
   0.33530919  0.27636048  0.54078805
   0.48578791  0.00164195  0.54401919
   0.50763040  0.28272167  0.37931123
   0.33503364  0.72769591  0.54244765
   0.50131275  0.50178485  0.56474491
   0.50767584  0.71958375  0.37948647
   0.66749283  0.28194520  0.55216768
   0.83992625  0.00241138  0.55356129
   0.83020580  0.27453142  0.38051158
   0.66787483  0.72302977  0.55170959
   0.85020727  0.50264306  0.53912437
   0.83048005  0.73011174  0.37996287
   0.00087788  0.27349241  0.86978395
   0.19982992  0.00103901  0.88689383
   0.19259074  0.23832960  0.71464505
   0.00272608  0.72608083  0.87257048
   0.16605833  0.49707817  0.86387163
   0.18921301  0.76235020  0.71515793
   0.33651080  0.27758771  0.89751132
   0.48129261  0.00120577  0.89469573
   0.48110166  0.23998379  0.71457493
   0.33550286  0.71230805  0.88962164
   0.51856009  0.49968213  0.86117452
   0.48374816  0.76175164  0.71491888
   0.66704043  0.24229615  0.88419263
   0.83496950  0.00142683  0.88514743
   0.83031303  0.29391727  0.71346369
   0.66643363  0.75842646  0.88470080
   0.82337313  0.50135997  0.89600006
   0.83125991  0.71219972  0.71381564
   0.66924355  0.29556979  0.21021027
   0.99638333  0.50316238  0.04337260
   0.33322458  0.50264047  0.04971145
   0.66845493  0.50219102  0.04177025
   0.99511905  0.50115353  0.37564271
   0.33765205  0.50130714  0.37350815
   0.66867669  0.50131655  0.37959168
   0.99741130  0.50433727  0.70673357
   0.33288887  0.00182621  0.69988620
   0.33339008  0.50405556  0.70946099
   0.66766409  0.50481238  0.70749271
   0.16638955  0.24403756  0.20844941
   0.16668556  0.75941652  0.20925688
   0.50407279  0.24079059  0.20813342
   0.50347208  0.76265792  0.20876844
   0.83098086  0.24270415  0.21153362
   0.83055954  0.76094790  0.21183157
   0.16766659  0.75730716  0.53834044
   0.50386639  0.24037375  0.53817673
   0.50409090  0.76358406  0.53870194
   0.83095880  0.23894093  0.54288903
   0.83117220  0.76628579  0.54234289
   0.16331386  0.24868880  0.87644013
   0.16666808  0.76637023  0.87923327
   0.50143863  0.25006904  0.87616624
   0.49902666  0.76100898  0.87889073
   0.83467489  0.24195229  0.87186986
   0.83554274  0.76256196  0.87280705
   0.16795595  0.24729027  0.53815265
   0.33654425  0.04769739  0.98343994
   0.00268613  0.00180437  0.27131972
   0.33354304  0.00101015  0.26564150
   0.88578514  0.00239655  0.04510422
   0.00519987  0.00250150  0.59072228
   0.66285312  0.00133204  0.93059886
Direct configuration=     9
   0.00202973  0.26056063  0.22589287
   0.16389767  0.00059893  0.22706759
   0.15892858  0.27322578  0.04625751
   0.00235397  0.74122973  0.22410117
   0.17964562  0.50022280  0.20671001
   0.16140051  0.72363200  0.04628184
   0.33406938  0.23970503  0.21479082
   0.50247992  0.00080219  0.21080913
   0.50489397  0.28796677  0.04754099
   0.33417010  0.76008682  0.21800545
   0.47707391  0.50037502  0.21619335
   0.50273591  0.71123831  0.04725170
   0.84434600  0.00155062  0.21064945
   0.84509364  0.25279276  0.04682254
   0.66872948  0.70753780  0.20958427
   0.84986640  0.50173385  0.20500346
   0.84442298  0.75058856  0.04686585
   0.00303245  0.24930352  0.55625730
   0.17552060  0.00153561  0.54457933
   0.16668593  0.29741507  0.38147443
   0.00278363  0.75509684  0.55549381
   0.15853302  0.50146824  0.57105827
   0.16621037  0.70454404  0.38149090
   0.33530920  0.27636059  0.54079366
   0.48578822  0.00164208  0.54402506
   0.50763166  0.28272240  0.37931879
   0.33503418  0.72769753  0.54245447
   0.50131423  0.50178565  0.56475181
   0.50767616  0.71958352  0.37949226
   0.66749397  0.28194380  0.55217436
   0.83992692  0.00241147  0.55356767
   0.83020600  0.27452945  0.38051843
   0.66787624  0.72303131  0.55171564
   0.85020785  0.50264350  0.53912953
   0.83047998  0.73011428  0.37996810
   0.00087904  0.27349193  0.86979144
   0.19983111  0.00103735  0.88690092
   0.19259040  0.23833113  0.71465315
   0.00272672  0.72608070  0.87257602
   0.16605961  0.49707824  0.86387902
   0.18921226  0.76235144  0.71516493
   0.33651093  0.27758808  0.89751783
   0.48129320  0.00120500  0.89470053
   0.48110129  0.23998268  0.71458118
   0.33550288  0.71230885  0.88962722
   0.51855914  0.49968282  0.86117923
   0.48375107  0.76175325  0.71492536
   0.66704101  0.24229701  0.88419840
   0.83496930  0.00142848  0.88515527
   0.83031456  0.29391713  0.71347067
   0.66643434  0.75842584  0.88470730
   0.82337432  0.50136117  0.89600672
   0.83126043  0.71220224  0.71382183
   0.66924380  0.29556876  0.21021709
   0.99638389  0.50316191  0.04337807
   0.33322441  0.50264023  0.04971731
   0.66845529  0.50219068  0.04177524
   0.99511964  0.50115396  0.37564816
   0.33765166  0.50130813  0.37351407
   0.66867679  0.50131696  0.37959678
   0.99741128  0.50433686  0.70674063
   0.33288989  0.00182661  0.69989240
   0.33339076  0.50405498  0.70946726
   0.66766427  0.50481169  0.70749790
   0.16638950  0.24403663  0.20845543
   0.16668573  0.75941569  0.20926107
   0.50407234  0.24079058  0.20813973
   0.50347219  0.76265753  0.20877375
   0.83098103  0.24270317  0.21154069
   0.83056047  0.76094855  0.21183565
   0.16766721  0.75730570  0.53834673
   0.50386637  0.24037422  0.53818414
   0.50409131  0.76358387  0.53870889