unknown system                          
           1
    11.636000    0.000000    0.000000
     0.000000    7.905000    0.000000
     0.000000    0.000000   11.636000
   O    La   Ti   Li
    54    10    18     6
Direct configuration=     1
   0.00234479  0.25986989  0.19735005
   0.16486346  0.00000900  0.19902117
   0.15870981  0.27462332  0.01876422
   0.00278848  0.74080449  0.19537692
   0.18046259  0.49975469  0.17949887
   0.16201006  0.72176261  0.01856829
   0.33494847  0.23906409  0.18557679
   0.50326559  0.00030205  0.18421898
   0.50784014  0.28729187  0.01961756
   0.33506528  0.75981727  0.18935788
   0.47705740  0.49973248  0.18817987
   0.50486871  0.71113517  0.01939775
   0.84376561  0.00092651  0.18356705
   0.84283357  0.25112515  0.01860593
   0.66939602  0.70529548  0.18295913
   0.85089581  0.50110002  0.17616519
   0.84255363  0.75105321  0.01867772
   0.00415097  0.24869383  0.52776573
   0.17694099  0.00090548  0.51692929
   0.16737091  0.29601232  0.35321613
   0.00383876  0.75422027  0.52693246
   0.15906026  0.50073976  0.54243178
   0.16683822  0.70461093  0.35333509
   0.33597248  0.27751528  0.51212320
   0.48607473  0.00106987  0.51718950
   0.50818644  0.28187272  0.35177507
   0.33574622  0.72539461  0.51388606
   0.50377844  0.50100899  0.53649393
   0.50830650  0.71914019  0.35194243
   0.66832524  0.27908659  0.52545035
   0.84105107  0.00166876  0.52657758
   0.83102320  0.27386170  0.35293796
   0.66876935  0.72415626  0.52477000
   0.85029626  0.50188893  0.51050920
   0.83132700  0.72940442  0.35229746
   0.00195691  0.27350039  0.84255487
   0.19986703  0.00028956  0.85937803
   0.19365524  0.23792617  0.68708149
   0.00359341  0.72454321  0.84513553
   0.16831759  0.49637138  0.83565539
   0.18981783  0.76147248  0.68736793
   0.33695612  0.27390147  0.87215479
   0.48406332  0.00038626  0.86369345
   0.47913641  0.24093370  0.68681499
   0.33595792  0.71456821  0.86305967
   0.51620612  0.49928726  0.83361642
   0.48262733  0.75972801  0.68677126
   0.66755129  0.24526541  0.85001809
   0.83419539  0.00068729  0.85381109
   0.83295122  0.29507008  0.68542716
   0.66702868  0.75417762  0.85139653
   0.82500444  0.50073473  0.86912362
   0.83357938  0.70981774  0.68576049
   0.66993389  0.29670147  0.18381978
   0.99777219  0.50216860  0.01668878
   0.33410794  0.50187188  0.02261418
   0.67033226  0.50154655  0.01542807
   0.99598721  0.50045861  0.34849147
   0.33841959  0.50085626  0.34599543
   0.66936815  0.50076140  0.35368970
   0.99924396  0.50336154  0.67886950
   0.33413872  0.00091747  0.67302448
   0.33437430  0.50336505  0.68135510
   0.66870742  0.50392926  0.68123351
   0.16735789  0.24321870  0.18076595
   0.16766044  0.75857097  0.18162857
   0.50541718  0.24022139  0.18078437
   0.50477581  0.76228566  0.18166464
   0.83158963  0.24216236  0.18484301
   0.83129550  0.76009023  0.18490947
   0.16880500  0.75696779  0.51037681
   0.50457694  0.23995609  0.51099346
   0.50493130  0.76306713  0.51160246
   0.83190521  0.23815906  0.51604671
   0.83220260  0.76557592  0.51535472
   0.16476698  0.24781245  0.84918294
   0.16748505  0.76554165  0.85163383
   0.50171744  0.25041608  0.84930559
   0.49950639  0.75848132  0.85184754
   0.83660434  0.24239325  0.84460988
   0.83736625  0.76047010  0.84537286
   0.16910738  0.24648324  0.51011291
   0.33846364  0.04254125  0.95460308
   0.00328208  0.00113812  0.24021613
   0.33446174  0.00055313  0.23690418
   0.87386155  0.00156713  0.01715751
   0.00642049  0.00182780  0.56210122
   0.66371010  0.00042411  0.87194922
Direct configuration=     2
   0.00234621  0.25987047  0.19735650
   0.16486603  0.00000995  0.19902657
   0.15871038  0.27461982  0.01876797
   0.00279034  0.74080525  0.19538282
   0.18045996  0.49975668  0.17950413
   0.16200898  0.72176862  0.01857280
   0.33495028  0.23906445  0.18558238
   0.50326738  0.00030269  0.18422267
   0.50784080  0.28729200  0.01962252
   0.33506796  0.75981762  0.18936487
   0.47706321  0.49973312  0.18818864
   0.50487039  0.71113790  0.01940169
   0.84376865  0.00092619  0.18357055
   0.84283859  0.25112564  0.01861082
   0.66939712  0.70530031  0.18296230
   0.85089859  0.50110014  0.17617145
   0.84255929  0.75105389  0.01868269
   0.00415276  0.24869374  0.52776953
   0.17694128  0.00090515  0.51693405
   0.16737195  0.29601320  0.35321856
   0.00384069  0.75422059  0.52693763
   0.15906081  0.50074099  0.54243617
   0.16683854  0.70461082  0.35333824
   0.33597252  0.27751389  0.51212791
   0.48607633  0.00106927  0.51719149
   0.50819007  0.28187429  0.35177889
   0.33574664  0.72539520  0.51388885
   0.50377793  0.50101237  0.53650001
   0.50830941  0.71913970  0.35194485
   0.66832467  0.27908876  0.52545318
   0.84105148  0.00167011  0.52657942
   0.83102318  0.27386268  0.35294312
   0.66876950  0.72415553  0.52477138
   0.85029807  0.50189056  0.51051394
   0.83132862  0.72940264  0.35230181
   0.00195747  0.27350028  0.84255883
   0.19986721  0.00029123  0.85937987
   0.19365587  0.23792956  0.68708439
   0.00359510  0.72454647  0.84513630
   0.16831655  0.49637112  0.83565994
   0.18981980  0.76147127  0.68737259
   0.33695770  0.27389972  0.87215573
   0.48406236  0.00038709  0.86369991
   0.47913950  0.24093272  0.68681862
   0.33595904  0.71457167  0.86306044
   0.51620858  0.49928680  0.83361668
   0.48262948  0.75973260  0.68677509
   0.66755221  0.24526185  0.85002882
   0.83419657  0.00068888  0.85381913
   0.83295154  0.29506775  0.68543175
   0.66702988  0.75418251  0.85140698
   0.82500475  0.50073533  0.86912815
   0.83357927  0.70982021  0.68576580
   0.66993548  0.29669925  0.18382318
   0.99777277  0.50216927  0.01669176
   0.33411016  0.50187426  0.02261817
   0.67033262  0.50154737  0.01543055
   0.99598810  0.50045901  0.34849493
   0.33842049  0.50085725  0.34599916
   0.66936811  0.50076218  0.35369114
   0.99924382  0.50336135  0.67887291
   0.33413860  0.00091756  0.67302850
   0.33437465  0.50336438  0.68135922
   0.66870766  0.50392950  0.68123650
   0.16736071  0.24321960  0.18076964
   0.16766154  0.75857195  0.18163054
   0.50541874  0.24022364  0.18078818
   0.50477588  0.76228496  0.18166737
   0.83159247  0.24216111  0.18484526
   0.83129652  0.76009105  0.18491194
   0.16880685  0.75696381  0.51037988
   0.50457696  0.23995373  0.51099744
   0.50493263  0.76306653  0.51160392
   0.83190526  0.23815941  0.51605168
   0.83220335  0.76557863  0.51535829
   0.16476803  0.24781243  0.84918579
   0.16748608  0.76553989  0.85163630
   0.50171693  0.25041691  0.84931066
   0.49950624  0.75848091  0.85184951
   0.83660421  0.24239428  0.84461377
   0.83736639  0.76047221  0.84537630
   0.16910840  0.24648205  0.51011593
   0.33846332  0.04254397  0.95460454
   0.00328493  0.00113739  0.24022255
   0.33446329  0.00055262  0.23690631
   0.87387762  0.00156972  0.01716377
   0.00641774  0.00182888  0.56210387
   0.66371300  0.00042663  0.87198380
Direct configuration=     3
   0.00234764  0.25987101  0.19736298
   0.16486855  0.00001090  0.19903193
   0.15871112  0.27461611  0.01877168
   0.00279227  0.74080613  0.19538882
   0.18045723  0.49975876  0.17950951
   0.16200791  0.72177490  0.01857737
   0.33495220  0.23906469  0.18558814
   0.50326924  0.00030342  0.18422647
   0.50784146  0.28729192  0.01962729
   0.33507077  0.75981803  0.18937185
   0.47706910  0.49973377  0.18819751
   0.50487217  0.71114089  0.01940556
   0.84377169  0.00092591  0.18357410
   0.84284360  0.25112594  0.01861566
   0.66939822  0.70530550  0.18296559
   0.85090125  0.50110029  0.17617794
   0.84256498  0.75105466  0.01868763
   0.00415464  0.24869355  0.52777324
   0.17694152  0.00090489  0.51693881
   0.16737293  0.29601397  0.35322108
   0.00384274  0.75422100  0.52694288
   0.15906132  0.50074222  0.54244030
   0.16683883  0.70461091  0.35334143
   0.33597260  0.27751229  0.51213260
   0.48607805  0.00106880  0.51719338
   0.50819369  0.28187569  0.35178257
   0.33574707  0.72539601  0.51389167
   0.50377739  0.50101583  0.53650598
   0.50831229  0.71913931  0.35194717
   0.66832408  0.27909083  0.52545595
   0.84105184  0.00167157  0.52658129
   0.83102314  0.27386354  0.35294824
   0.66876967  0.72415494  0.52477268
   0.85029992  0.50189226  0.51051881
   0.83133031  0.72940094  0.35230611
   0.00195802  0.27349998  0.84256295
   0.19986733  0.00029278  0.85938182
   0.19365636  0.23793293  0.68708738
   0.00359689  0.72455012  0.84513712
   0.16831551  0.49637082  0.83566471
   0.18982170  0.76147001  0.68737746
   0.33695915  0.27389778  0.87215670
   0.48406138  0.00038774  0.86370642
   0.47914274  0.24093167  0.68682263
   0.33596014  0.71457552  0.86306127
   0.51621115  0.49928641  0.83361713
   0.48263172  0.75973725  0.68677908
   0.66755311  0.24525827  0.85003972
   0.83419786  0.00069058  0.85382735
   0.83295192  0.29506513  0.68543665
   0.66703113  0.75418744  0.85141760
   0.82500508  0.50073592  0.86913274
   0.83357924  0.70982293  0.68577135
   0.66993706  0.29669677  0.18382671
   0.99777334  0.50216993  0.01669470
   0.33411239  0.50187660  0.02262214
   0.67033296  0.50154822  0.01543304
   0.99598901  0.50045941  0.34849837
   0.33842138  0.50085823  0.34600288
   0.66936807  0.50076297  0.35369258
   0.99924366  0.50336115  0.67887630
   0.33413846  0.00091767  0.67303251
   0.33437500  0.50336373  0.68136332
   0.66870789  0.50392975  0.68123951
   0.16736347  0.24322043  0.18077338
   0.16766257  0.75857304  0.18163263
   0.50542032  0.24022591  0.18079190
   0.50477604  0.76228422  0.18167006
   0.83159535  0.24215979  0.18484737
   0.83129749  0.76009190  0.18491444
   0.16880857  0.75695981  0.51038295
   0.50457700  0.23995133  0.51100144
   0.50493401  0.76306599  0.51160537
   0.83190527  0.23815986  0.51605668
   0.83220404  0.76558139  0.51536197
   0.16476902  0.24781241  0.84918858
   0.16748717  0.76553826  0.85163883
   0.50171658  0.25041756  0.84931570
   0.49950614  0.75848055  0.85185142
   0.83660409  0.24239533  0.84461752
   0.83736652  0.76047432  0.84537966
   0.16910940  0.24648094  0.51011901
   0.33846301  0.04254658  0.95460609
   0.00328805  0.00113658  0.24022899
   0.33446486  0.00055226  0.23690835
   0.87389373  0.00157213  0.01717012
   0.00641512  0.00182984  0.56210644
   0.66371576  0.00042906  0.87201847
Direct configuration=     4
   0.00234910  0.25987141  0.19736940
   0.16487102  0.00001186  0.19903718
   0.15871202  0.27461213  0.01877536
   0.00279425  0.74080722  0.19539483
   0.18045451  0.49976088  0.17951492
   0.16200690  0.72178146  0.01858199
   0.33495418  0.23906475  0.18559400
   0.50327115  0.00030422  0.18423029
   0.50784209  0.28729159  0.01963181
   0.33507367  0.75981854  0.18937872
   0.47707502  0.49973442  0.18820637
   0.50487400  0.71114412  0.01940935
   0.84377461  0.00092568  0.18357771
   0.84284856  0.25112597  0.01862051
   0.66939934  0.70531102  0.18296893
   0.85090375  0.50110046  0.17618454
   0.84257067  0.75105557  0.01869255
   0.00415657  0.24869316  0.52777680
   0.17694168  0.00090469  0.51694342
   0.16737387  0.29601447  0.35322374
   0.00384490  0.75422161  0.52694814
   0.15906182  0.50074342  0.54244409
   0.16683913  0.70461129  0.35334472
   0.33597273  0.27751045  0.51213716
   0.48607989  0.00106848  0.51719504
   0.50819724  0.28187675  0.35178617
   0.33574752  0.72539709  0.51389442
   0.50377681  0.50101932  0.53651176
   0.50831508  0.71913917  0.35194946
   0.66832346  0.27909260  0.52545862
   0.84105210  0.00167306  0.52658313
   0.83102306  0.27386417  0.35295331
   0.66876986  0.72415466  0.52477390
   0.85030177  0.50189399  0.51052374
   0.83133203  0.72939949  0.35231034
   0.00195855  0.27349935  0.84256711
   0.19986735  0.00029415  0.85938384
   0.19365668  0.23793614  0.68709043
   0.00359872  0.72455412  0.84513798
   0.16831455  0.49637047  0.83566963
   0.18982347  0.76146875  0.68738248
   0.33696047  0.27389575  0.87215772
   0.48406040  0.00038817  0.86371294
   0.47914611  0.24093047  0.68682699
   0.33596124  0.71457963  0.86306222
   0.51621372  0.49928610  0.83361780
   0.48263408  0.75974196  0.68678322
   0.66755392  0.24525461  0.85005074
   0.83419926  0.00069238  0.85383564
   0.83295233  0.29506217  0.68544182
   0.66703237  0.75419245  0.85142833
   0.82500542  0.50073648  0.86913727
   0.83357926  0.70982595  0.68577707
   0.66993864  0.29669399  0.18383028
   0.99777387  0.50217060  0.01669764
   0.33411464  0.50187889  0.02262610
   0.67033330  0.50154907  0.01543556
   0.99598991  0.50045979  0.34850179
   0.33842228  0.50085920  0.34600657
   0.66936803  0.50076374  0.35369400
   0.99924345  0.50336095  0.67887967
   0.33413829  0.00091779  0.67303651
   0.33437534  0.50336310  0.68136740
   0.66870813  0.50392998  0.68124252
   0.16736618  0.24322120  0.18077715
   0.16766351  0.75857423  0.18163482
   0.50542193  0.24022818  0.18079553
   0.50477628  0.76228345  0.18167270
   0.83159826  0.24215845  0.18484934
   0.83129839  0.76009277  0.18491694
   0.16881017  0.75695580  0.51038601
   0.50457707  0.23994892  0.51100543
   0.50493544  0.76306549  0.51160679
   0.83190522  0.23816040  0.51606169
   0.83220468  0.76558415  0.51536576
   0.16476994  0.24781242  0.84919128
   0.16748832  0.76553677  0.85164140
   0.50171641  0.25041812  0.84932070
   0.49950611  0.75848023  0.85185327
   0.83660398  0.24239640  0.84462110
   0.83736666  0.76047643  0.84538292
   0.16911038  0.24647993  0.51012213
   0.33846273  0.04254905  0.95460781
   0.00329145  0.00113571  0.24023549
   0.33446644  0.00055207  0.23691036
   0.87390992  0.00157434  0.01717658
   0.00641270  0.00183067  0.56210897
   0.66371831  0.00043140  0.87205325
Direct configuration=     5
   0.00235056  0.25987187  0.19737582
   0.16487342  0.00001284  0.19904235
   0.15871309  0.27460817  0.01877900
   0.00279625  0.74080831  0.19540090
   0.18045190  0.49976304  0.17952031
   0.16200596  0.72178798  0.01858667
   0.33495624  0.23906484  0.18559996
   0.50327305  0.00030512  0.18423413
   0.50784268  0.28729133  0.01963608
   0.33507664  0.75981895  0.18938551
   0.47708080  0.49973506  0.18821525
   0.50487586  0.71114725  0.01941304
   0.84377749  0.00092552  0.18358134
   0.84285350  0.25112597  0.01862534
   0.66940051  0.70531651  0.18297232
   0.85090616  0.50110066  0.17619119
   0.84257638  0.75105641  0.01869746
   0.00415850  0.24869275  0.52778025
   0.17694185  0.00090459  0.51694800
   0.16737479  0.29601504  0.35322646
   0.00384710  0.75422224  0.52695345
   0.15906225  0.50074459  0.54244767
   0.16683945  0.70461167  0.35334805
   0.33597295  0.27750856  0.51214163
   0.48608172  0.00106833  0.51719659
   0.50820073  0.28187778  0.35178964
   0.33574799  0.72539826  0.51389714
   0.50377619  0.50102282  0.53651745
   0.50831779  0.71913898  0.35195168
   0.66832287  0.27909439  0.52546124
   0.84105231  0.00167461  0.52658498
   0.83102295  0.27386484  0.35295830
   0.66877013  0.72415441  0.52477506
   0.85030368  0.50189573  0.51052872
   0.83133378  0.72939801  0.35231450
   0.00195903  0.27349872  0.84257128
   0.19986743  0.00029538  0.85938585
   0.19365700  0.23793920  0.68709347
   0.00360056  0.72455810  0.84513886
   0.16831367  0.49637019  0.83567463
   0.18982527  0.76146747  0.68738758
   0.33696162  0.27389386  0.87215885
   0.48405932  0.00038845  0.86371943
   0.47914945  0.24092917  0.68683165
   0.33596229  0.71458371  0.86306332
   0.51621636  0.49928593  0.83361861
   0.48263643  0.75974668  0.68678747
   0.66755469  0.24525103  0.85006191
   0.83420077  0.00069428  0.85384408
   0.83295276  0.29505927  0.68544718
   0.66703364  0.75419735  0.85143920
   0.82500572  0.50073703  0.86914185
   0.83357932  0.70982890  0.68578289
   0.66994023  0.29669126  0.18383388
   0.99777440  0.50217127  0.01670056
   0.33411691  0.50188114  0.02263005
   0.67033362  0.50154995  0.01543810
   0.99599083  0.50046017  0.34850522
   0.33842316  0.50086016  0.34601027
   0.66936799  0.50076452  0.35369543
   0.99924323  0.50336074  0.67888303
   0.33413810  0.00091794  0.67304052
   0.33437568  0.50336248  0.68137148
   0.66870837  0.50393022  0.68124557
   0.16736884  0.24322193  0.18078098
   0.16766439  0.75857550  0.18163714
   0.50542355  0.24023045  0.18079909
   0.50477659  0.76228266  0.18167532
   0.83160122  0.24215706  0.18485119
   0.83129924  0.76009364  0.18491946
   0.16881165  0.75695177  0.51038908
   0.50457714  0.23994651  0.51100944
   0.50493691  0.76306501  0.51160820
   0.83190512  0.23816105  0.51606668
   0.83220527  0.76558691  0.51536966
   0.16477080  0.24781248  0.84919391
   0.16748954  0.76553542  0.85164399
   0.50171640  0.25041854  0.84932564
   0.49950613  0.75847998  0.85185505
   0.83660384  0.24239747  0.84462451
   0.83736678  0.76047855  0.84538609
   0.16911133  0.24647899  0.51012532
   0.33846247  0.04255135  0.95460972
   0.00329512  0.00113476  0.24024210
   0.33446796  0.00055199  0.23691234
   0.87392619  0.00157636  0.01718313
   0.00641051  0.00183138  0.56211148
   0.66372065  0.00043363  0.87208816
Direct configuration=     6
   0.00235196  0.25987235  0.19738223
   0.16487574  0.00001389  0.19904743
   0.15871430  0.27460423  0.01878258
   0.00279820  0.74080944  0.19540704
   0.18044940  0.49976521  0.17952565
   0.16200506  0.72179452  0.01859138
   0.33495838  0.23906490  0.18560600
   0.50327499  0.00030617  0.18423796
   0.50784326  0.28729117  0.01964005
   0.33507969  0.75981931  0.18939219
   0.47708643  0.49973569  0.18822410
   0.50487775  0.71115026  0.01941662
   0.84378033  0.00092543  0.18358497
   0.84285843  0.25112586  0.01863013
   0.66940172  0.70532201  0.18297573
   0.85090848  0.50110088  0.17619789
   0.84258212  0.75105724  0.01870230
   0.00416036  0.24869229  0.52778358
   0.17694200  0.00090458  0.51695248
   0.16737567  0.29601567  0.35322917
   0.00384925  0.75422292  0.52695880
   0.15906259  0.50074573  0.54245099
   0.16683975  0.70461204  0.35335133
   0.33597327  0.27750668  0.51214595
   0.48608357  0.00106836  0.51719797
   0.50820414  0.28187876  0.35179293
   0.33574852  0.72539948  0.51389981
   0.50377555  0.50102632  0.53652303
   0.50832042  0.71913878  0.35195378
   0.66832232  0.27909614  0.52546380
   0.84105245  0.00167623  0.52658683
   0.83102281  0.27386550  0.35296318
   0.66877048  0.72415421  0.52477619
   0.85030567  0.50189748  0.51053375
   0.83133558  0.72939658  0.35231855
   0.00195943  0.27349802  0.84257546
   0.19986752  0.00029658  0.85938790
   0.19365728  0.23794211  0.68709641
   0.00360234  0.72456218  0.84513976
   0.16831286  0.49637011  0.83567973
   0.18982708  0.76146616  0.68739264
   0.33696255  0.27389214  0.87216014
   0.48405819  0.00038863  0.86372594
   0.47915281  0.24092775  0.68683652
   0.33596328  0.71458774  0.86306462
   0.51621909  0.49928598  0.83361957
   0.48263880  0.75975142  0.68679173
   0.66755546  0.24524751  0.85007321
   0.83420240  0.00069628  0.85385266
   0.83295320  0.29505636  0.68545265
   0.66703500  0.75420218  0.85145021
   0.82500598  0.50073758  0.86914648
   0.83357941  0.70983184  0.68578870
   0.66994183  0.29668854  0.18383748
   0.99777492  0.50217195  0.01670346
   0.33411919  0.50188335  0.02263399
   0.67033393  0.50155086  0.01544067
   0.99599175  0.50046054  0.34850864
   0.33842405  0.50086111  0.34601395
   0.66936794  0.50076530  0.35369686
   0.99924297  0.50336054  0.67888638
   0.33413788  0.00091809  0.67304451
   0.33437602  0.50336190  0.68137555
   0.66870861  0.50393046  0.68124861
   0.16737145  0.24322254  0.18078487
   0.16766519  0.75857690  0.18163953
   0.50542520  0.24023264  0.18080262
   0.50477700  0.76228191  0.18167793
   0.83160420  0.24215561  0.18485295
   0.83130002  0.76009455  0.18492203
   0.16881302  0.75694778  0.51039218
   0.50457725  0.23994404  0.51101349
   0.50493843  0.76306463  0.51160962
   0.83190497  0.23816176  0.51607169
   0.83220580  0.76558970  0.51537368
   0.16477154  0.24781245  0.84919652
   0.16749081  0.76553422  0.85164666
   0.50171658  0.25041875  0.84933054
   0.49950622  0.75847981  0.85185679
   0.83660371  0.24239849  0.84462774
   0.83736691  0.76048072  0.84538920
   0.16911227  0.24647807  0.51012859
   0.33846223  0.04255347  0.95461179
   0.00329902  0.00113376  0.24024877
   0.33446945  0.00055204  0.23691426
   0.87394250  0.00157815  0.01718971
   0.00640854  0.00183194  0.56211397
   0.66372284  0.00043576  0.87212323
Direct configuration=     7
   0.00235333  0.25987306  0.19738865
   0.16487799  0.00001500  0.19905248
   0.15871566  0.27460069  0.01878607
   0.00280011  0.74081039  0.19541325
   0.18044709  0.49976739  0.17953089
   0.16200422  0.72180062  0.01859608
   0.33496059  0.23906514  0.18561211
   0.50327686  0.00030735  0.18424181
   0.50784378  0.28729145  0.01964366
   0.33508280  0.75981941  0.18939878
   0.47709175  0.49973632  0.18823290
   0.50487965  0.71115277  0.01942003
   0.84378325  0.00092540  0.18358856
   0.84286338  0.25112585  0.01863485
   0.66940296  0.70532711  0.18297913
   0.85091075  0.50110115  0.17620455
   0.84258791  0.75105785  0.01870706
   0.00416214  0.24869199  0.52778683
   0.17694222  0.00090467  0.51695703
   0.16737650  0.29601672  0.35323186
   0.00385135  0.75422346  0.52696424
   0.15906280  0.50074684  0.54245419
   0.16684005  0.70461204  0.35335456
   0.33597369  0.27750507  0.51215018
   0.48608522  0.00106857  0.51719936
   0.50820744  0.28188007  0.35179606
   0.33574911  0.72540051  0.51390250
   0.50377486  0.50102981  0.53652859
   0.50832295  0.71913813  0.35195578
   0.66832182  0.27909831  0.52546635
   0.84105264  0.00167789  0.52658873
   0.83102267  0.27386650  0.35296794
   0.66877093  0.72415363  0.52477732
   0.85030782  0.50189923  0.51053882
   0.83133743  0.72939483  0.35232251
   0.00195977  0.27349766  0.84257962
   0.19986785  0.00029776  0.85938989
   0.19365773  0.23794492  0.68709918
   0.00360406  0.72456588  0.84514067
   0.16831215  0.49637024  0.83568484
   0.18982908  0.76146476  0.68739759
   0.33696327  0.27389085  0.87216160
   0.48405690  0.00038873  0.86373241
   0.47915597  0.24092630  0.68684156
   0.33596421  0.71459139  0.86306610
   0.51622195  0.49928624  0.83362062
   0.48264099  0.75975608  0.68679599
   0.66755620  0.24524423  0.85008463
   0.83420407  0.00069836  0.85386147
   0.83295364  0.29505388  0.68545816
   0.66703641  0.75420673  0.85146132
   0.82500613  0.50073813  0.86915123
   0.83357951  0.70983436  0.68579444
   0.66994341  0.29668624  0.18384105
   0.99777542  0.50217262  0.01670636
   0.33412148  0.50188552  0.02263792
   0.67033424  0.50155178  0.01544325
   0.99599270  0.50046091  0.34851207
   0.33842492  0.50086205  0.34601765
   0.66936791  0.50076607  0.35369830
   0.99924271  0.50336032  0.67888974
   0.33413765  0.00091826  0.67304852
   0.33437636  0.50336131  0.68137962
   0.66870885  0.50393069  0.68125171
   0.16737399  0.24322306  0.18078883
   0.16766588  0.75857839  0.18164200
   0.50542690  0.24023478  0.18080613
   0.50477750  0.76228117  0.18168054
   0.83160723  0.24215414  0.18485463
   0.83130077  0.76009547  0.18492465
   0.16881427  0.75694381  0.51039532
   0.50457737  0.23994154  0.51101759
   0.50493999  0.76306428  0.51161107
   0.83190477  0.23816260  0.51607669
   0.83220630  0.76559247  0.51537783
   0.16477217  0.24781237  0.84919910
   0.16749213  0.76553315  0.85164940
   0.50171695  0.25041877  0.84933542
   0.49950638  0.75847974  0.85185845
   0.83660357  0.24239948  0.84463084
   0.83736703  0.76048291  0.84539226
   0.16911319  0.24647719  0.51013197
   0.33846199  0.04255540  0.95461396
   0.00330313  0.00113270  0.24025551
   0.33447093  0.00055221  0.23691610
   0.87395879  0.00157972  0.01719630
   0.00640677  0.00183237  0.56211641
   0.66372490  0.00043777  0.87215847
Direct configuration=     8
   0.00235467  0.25987374  0.19739506
   0.16488017  0.00001618  0.19905749
   0.15871719  0.27459726  0.01878950
   0.00280196  0.74081144  0.19541953
   0.18044495  0.49976955  0.17953605
   0.16200349  0.72180661  0.01860078
   0.33496287  0.23906539  0.18561830
   0.50327868  0.00030868  0.18424566
   0.50784423  0.28729190  0.01964691
   0.33508594  0.75981943  0.18940527
   0.47709689  0.49973695  0.18824159
   0.50488153  0.71115507  0.01942328
   0.84378620  0.00092545  0.18359214
   0.84286830  0.25112573  0.01863951
   0.66940425  0.70533211  0.18298253
   0.85091291  0.50110145  0.17621123
   0.84259373  0.75105846  0.01871174
   0.00416381  0.24869165  0.52778999
   0.17694240  0.00090486  0.51696152
   0.16737733  0.29601789  0.35323455
   0.00385337  0.75422407  0.52696974
   0.15906295  0.50074791  0.54245714
   0.16684036  0.70461198  0.35335775
   0.33597425  0.27750353  0.51215427
   0.48608682  0.00106896  0.51720063
   0.50821061  0.28188140  0.35179904
   0.33574977  0.72540155  0.51390514
   0.50377410  0.50103329  0.53653404
   0.50832535  0.71913741  0.35195770
   0.66832136  0.27910056  0.52546887
   0.84105285  0.00167959  0.52659066
   0.83102251  0.27386755  0.35297258
   0.66877147  0.72415302  0.52477843
   0.85031005  0.50190096  0.51054397
   0.83133933  0.72939309  0.35232639
   0.00196004  0.27349734  0.84258375
   0.19986828  0.00029897  0.85939189
   0.19365815  0.23794764  0.68710180
   0.00360572  0.72456954  0.84514159
   0.16831154  0.49637061  0.83569003
   0.18983110  0.76146329  0.68740242
   0.33696377  0.27388978  0.87216322
   0.48405554  0.00038880  0.86373890
   0.47915912  0.24092479  0.68684676
   0.33596507  0.71459490  0.86306778
   0.51622488  0.49928673  0.83362182
   0.48264318  0.75976070  0.68680023
   0.66755692  0.24524103  0.85009616
   0.83420580  0.00070053  0.85387047
   0.83295408  0.29505150  0.68546368
   0.66703789  0.75421121  0.85147254
   0.82500623  0.50073867  0.86915600
   0.83357962  0.70983679  0.68580007
   0.66994499  0.29668404  0.18384460
   0.99777591  0.50217330  0.01670923
   0.33412379  0.50188765  0.02264184
   0.67033452  0.50155272  0.01544587
   0.99599365  0.50046127  0.34851549
   0.33842580  0.50086299  0.34602134
   0.66936787  0.50076683  0.35369974
   0.99924241  0.50336011  0.67889306
   0.33413739  0.00091844  0.67305251
   0.33437670  0.50336076  0.68138367
   0.66870910  0.50393092  0.68125479
   0.16737645  0.24322344  0.18079287
   0.16766648  0.75858001  0.18164456
   0.50542864  0.24023680  0.18080963
   0.50477811  0.76228051  0.18168316
   0.83161028  0.24215261  0.18485624
   0.83130147  0.76009642  0.18492734
   0.16881539  0.75693991  0.51039850
   0.50457753  0.23993899  0.51102172
   0.50494160  0.76306400  0.51161254
   0.83190452  0.23816351  0.51608169
   0.83220676  0.76559526  0.51538208
   0.16477267  0.24781218  0.84920167
   0.16749349  0.76553223  0.85165221
   0.50171753  0.25041855  0.84934027
   0.49950662  0.75847981  0.85186005
   0.83660343  0.24240040  0.84463381
   0.83736716  0.76048518  0.84539528
   0.16911408  0.24647632  0.51013543
   0.33846175  0.04255713  0.95461624
   0.00330744  0.00113158  0.24026229
   0.33447240  0.00055250  0.23691785
   0.87397507  0.00158105  0.01720287
   0.00640522  0.00183265  0.56211879
   0.66372683  0.00043966  0.87219388
Direct configuration=     9
   0.00235602  0.25987462  0.19740144
   0.16488227  0.00001741  0.19906243
   0.15871888  0.27459415  0.01879286
   0.00280383  0.74081234  0.19542587
   0.18044304  0.49977170  0.17954107
   0.16200285  0.72181226  0.01860544
   0.33496521  0.23906587  0.18562454
   0.50328047  0.00031012  0.18424949
   0.50784461  0.28729276  0.01964984
   0.33508910  0.75981917  0.18941161
   0.47710172  0.49973757  0.18825015
   0.50488338  0.71115691  0.01942641
   0.84378916  0.00092557  0.18359570
   0.84287322  0.25112574  0.01864412
   0.66940557  0.70533678  0.18298592
   0.85091499  0.50110180  0.17621786
   0.84259957  0.75105881  0.01871634
   0.00416540  0.24869147  0.52779308
   0.17694266  0.00090512  0.51696605
   0.16737814  0.29601937  0.35323732
   0.00385531  0.75422453  0.52697531
   0.15906299  0.50074895  0.54245998
   0.16684069  0.70461166  0.35336096
   0.33597496  0.27750221  0.51215829
   0.48608828  0.00106952  0.51720189
   0.50821367  0.28188293  0.35180197
   0.33575054  0.72540246  0.51390782
   0.50377329  0.50103674  0.53653946
   0.50832765  0.71913639  0.35195962
   0.66832094  0.27910311  0.52547140
   0.84105304  0.00168131  0.52659264
   0.83102233  0.27386884  0.35297718
   0.66877210  0.72415214  0.52477956
   0.85031239  0.50190268  0.51054918
   0.83134127  0.72939115  0.35233026
   0.00196029  0.27349727  0.84258786
   0.19986886  0.00030010  0.85939381
   0.19365870  0.23795026  0.68710435
   0.00360734  0.72457291  0.84514252
   0.16831106  0.49637114  0.83569524
   0.18983330  0.76146175  0.68740719
   0.33696405  0.27388916  0.87216500
   0.48405404  0.00038878  0.86374532
   0.47916211  0.24092323  0.68685212
   0.33596588  0.71459801  0.86306966
   0.51622791  0.49928744  0.83362311
   0.48264524  0.75976524  0.68680447
   0.66755761  0.24523812  0.85010778
   0.83420762  0.00070276  0.85387961
   0.83295450  0.29504947  0.68546929
   0.66703943  0.75421537  0.85148383
   0.82500623  0.50073921  0.86916084
   0.83357971  0.70983888  0.68580566
   0.66994656  0.29668220  0.18384810
   0.99777640  0.50217397  0.01671210
   0.33412610  0.50188972  0.02264575
   0.67033482  0.50155368  0.01544849
   0.99599462  0.50046163  0.34851892
   0.33842666  0.50086391  0.34602504
   0.66936785  0.50076760  0.35370118
   0.99924211  0.50335988  0.67889640
   0.33413711  0.00091864  0.67305652
   0.33437703  0.50336022  0.68138772
   0.66870935  0.50393115  0.68125791
   0.16737882  0.24322377  0.18079695
   0.16766697  0.75858171  0.18164722
   0.50543044  0.24023875  0.18081312
   0.50477882  0.76227989  0.18168578
   0.83161338  0.24215108  0.18485778
   0.83130213  0.76009736  0.18493007
   0.16881639  0.75693603  0.51040170
   0.50457771  0.23993644  0.51102587
   0.50494323  0.76306376  0.51161402