unknown system                          
           1
    11.636000    0.000000    0.000000
     0.000000    7.905000    0.000000
     0.000000    0.000000   11.636000
   O    La   Ti   Li
    54    10    18     6
Direct configuration=     1
   0.00270489  0.26028154  0.20538721
   0.16479361  0.00051528  0.20669061
   0.15913704  0.27373996  0.02583396
   0.00313873  0.74122695  0.20339729
   0.18044160  0.50014809  0.18633053
   0.16212746  0.72326232  0.02578390
   0.33498356  0.23951791  0.19333845
   0.50342302  0.00072384  0.19085212
   0.50682233  0.28802874  0.02692717
   0.33512425  0.76020485  0.19677349
   0.47756275  0.50024100  0.19549907
   0.50433870  0.71106051  0.02665449
   0.84469634  0.00128150  0.19062636
   0.84490948  0.25203546  0.02620520
   0.66956974  0.70662824  0.18963107
   0.85089399  0.50165130  0.18388684
   0.84442031  0.75112108  0.02615007
   0.00414182  0.24896275  0.53533356
   0.17681367  0.00140114  0.52433325
   0.16773605  0.29693736  0.36072473
   0.00389794  0.75511037  0.53461161
   0.15918793  0.50132518  0.54994447
   0.16727350  0.70475945  0.36077892
   0.33619030  0.27704980  0.52001468
   0.48651561  0.00163016  0.52385337
   0.50830984  0.28245066  0.35881269
   0.33601053  0.72684911  0.52174032
   0.50292924  0.50155408  0.54397937
   0.50840987  0.71959571  0.35901324
   0.66842303  0.28113183  0.53205645
   0.84090082  0.00221322  0.53340483
   0.83107962  0.27455987  0.36012116
   0.66885860  0.72334988  0.53142736
   0.85112842  0.50250613  0.51833195
   0.83145275  0.72982977  0.35951634
   0.00196145  0.27389345  0.84938614
   0.20036016  0.00078416  0.86624375
   0.19353814  0.23858873  0.69416917
   0.00369420  0.72538318  0.85203528
   0.16790021  0.49699942  0.84352197
   0.19010423  0.76179105  0.69456145
   0.33723406  0.27571525  0.87809402
   0.48347379  0.00096624  0.87339850
   0.48092074  0.24020253  0.69411111
   0.33635206  0.71384061  0.86978693
   0.51802121  0.49967121  0.84065741
   0.48393837  0.76129782  0.69423726
   0.66789005  0.24390508  0.86105413
   0.83532119  0.00144274  0.86327075
   0.83206068  0.29454358  0.69275957
   0.66741778  0.75665479  0.86198294
   0.82470549  0.50111690  0.87592775
   0.83286082  0.71131456  0.69319307
   0.67013184  0.29614462  0.19037951
   0.99753794  0.50291959  0.02320590
   0.33413640  0.50240643  0.02939931
   0.66990264  0.50190846  0.02186369
   0.99619512  0.50094112  0.35528802
   0.33855481  0.50124767  0.35303757
   0.66964317  0.50117271  0.35982915
   0.99881009  0.50400668  0.68616262
   0.33392829  0.00163946  0.67953130
   0.33447095  0.50391062  0.68878652
   0.66870013  0.50456411  0.68760988
   0.16728974  0.24379051  0.18794272
   0.16752405  0.75937713  0.18881817
   0.50522370  0.24059423  0.18777006
   0.50451967  0.76255103  0.18844478
   0.83184436  0.24228359  0.19143230
   0.83134215  0.76040589  0.19169819
   0.16872453  0.75716039  0.51778128
   0.50463385  0.24059712  0.51783810
   0.50502199  0.76362848  0.51839463
   0.83184869  0.23866345  0.52273260
   0.83223095  0.76598738  0.52223081
   0.16457251  0.24828168  0.85618623
   0.16754410  0.76594736  0.85877377
   0.50206537  0.25016317  0.85606329
   0.49984036  0.76001913  0.85860280
   0.83604223  0.24272875  0.85143699
   0.83685166  0.76222861  0.85241910
   0.16891240  0.24708133  0.51754259
   0.33805833  0.04476609  0.96236927
   0.00341901  0.00140707  0.24998192
   0.33450541  0.00096814  0.24473024
   0.88224673  0.00220864  0.02457719
   0.00637841  0.00234205  0.56998393
   0.66389276  0.00115304  0.89887921
Direct configuration=     2
   0.00270272  0.26028376  0.20539717
   0.16479485  0.00051532  0.20670142
   0.15913645  0.27374194  0.02584331
   0.00313492  0.74122604  0.20340482
   0.18044444  0.50014612  0.18634250
   0.16212609  0.72325928  0.02579153
   0.33498434  0.23952185  0.19334765
   0.50342074  0.00072392  0.19086094
   0.50681968  0.28802869  0.02693722
   0.33512394  0.76020155  0.19678407
   0.47755825  0.50024236  0.19551028
   0.50433585  0.71105944  0.02666378
   0.84469660  0.00128212  0.19063704
   0.84490925  0.25203515  0.02621242
   0.66956889  0.70663025  0.18963689
   0.85089309  0.50165077  0.18389530
   0.84442147  0.75112366  0.02615712
   0.00413882  0.24896399  0.53534240
   0.17681383  0.00140064  0.52434076
   0.16773729  0.29693960  0.36073452
   0.00389631  0.75510825  0.53461981
   0.15918916  0.50132507  0.54995437
   0.16727346  0.70475678  0.36078670
   0.33618883  0.27705908  0.52002263
   0.48650982  0.00163033  0.52385892
   0.50830585  0.28245778  0.35881851
   0.33600949  0.72684345  0.52174747
   0.50292299  0.50155407  0.54398751
   0.50840861  0.71959506  0.35902016
   0.66842122  0.28112899  0.53206504
   0.84089906  0.00221228  0.53341284
   0.83107712  0.27456131  0.36012881
   0.66885738  0.72334902  0.53144050
   0.85112584  0.50250390  0.51834292
   0.83145026  0.72982454  0.35952424
   0.00195919  0.27389394  0.84939052
   0.20036037  0.00078716  0.86625106
   0.19353921  0.23859240  0.69417795
   0.00369285  0.72538446  0.85204285
   0.16790102  0.49700063  0.84352546
   0.19010464  0.76178735  0.69456906
   0.33723255  0.27571994  0.87810016
   0.48347176  0.00096766  0.87340765
   0.48091716  0.24020346  0.69411903
   0.33635140  0.71383449  0.86979388
   0.51801830  0.49967177  0.84066100
   0.48393488  0.76129554  0.69424503
   0.66788752  0.24390310  0.86106100
   0.83532052  0.00144360  0.86327821
   0.83205839  0.29454256  0.69276826
   0.66741551  0.75665532  0.86199196
   0.82470583  0.50111693  0.87593123
   0.83285937  0.71131618  0.69320095
   0.67013118  0.29614337  0.19038920
   0.99753700  0.50291996  0.02321469
   0.33413522  0.50240642  0.02940819
   0.66990178  0.50190952  0.02187087
   0.99619328  0.50094059  0.35529661
   0.33855367  0.50124839  0.35304620
   0.66964166  0.50117277  0.35983611
   0.99880777  0.50400667  0.68617153
   0.33392691  0.00163868  0.67954013
   0.33446921  0.50390935  0.68879632
   0.66869941  0.50456246  0.68761807
   0.16729047  0.24378738  0.18795138
   0.16752166  0.75937739  0.18882894
   0.50522368  0.24059405  0.18777798
   0.50452032  0.76255124  0.18845555
   0.83184354  0.24228306  0.19144073
   0.83134045  0.76040667  0.19170733
   0.16872135  0.75716520  0.51778902
   0.50463252  0.24059221  0.51784575
   0.50502136  0.76363095  0.51840543
   0.83184650  0.23866260  0.52274071
   0.83223095  0.76598854  0.52224115
   0.16456828  0.24828338  0.85619664
   0.16754401  0.76595222  0.85878525
   0.50206333  0.25016120  0.85607231
   0.49984055  0.76001833  0.85861218
   0.83603890  0.24272986  0.85144591
   0.83685236  0.76223223  0.85242969
   0.16890727  0.24708008  0.51755166
   0.33805443  0.04476845  0.96238302
   0.00341664  0.00141042  0.24999350
   0.33450480  0.00096675  0.24474296
   0.88224574  0.00220827  0.02458357
   0.00637637  0.00234200  0.56998719
   0.66389202  0.00115413  0.89889459
Direct configuration=     3
   0.00270016  0.26028663  0.20540698
   0.16479617  0.00051555  0.20671217
   0.15913578  0.27374449  0.02585312
   0.00313065  0.74122448  0.20341227
   0.18044737  0.50014399  0.18635460
   0.16212448  0.72325580  0.02579930
   0.33498509  0.23952633  0.19335695
   0.50341869  0.00072426  0.19086958
   0.50681720  0.28802931  0.02694747
   0.33512351  0.76019747  0.19679487
   0.47755346  0.50024341  0.19552163
   0.50433336  0.71105775  0.02667311
   0.84469674  0.00128301  0.19064761
   0.84490905  0.25203546  0.02622000
   0.66956844  0.70663159  0.18964254
   0.85089231  0.50165007  0.18390355
   0.84442275  0.75112539  0.02616423
   0.00413557  0.24896583  0.53535117
   0.17681411  0.00140025  0.52434815
   0.16773861  0.29694233  0.36074437
   0.00389453  0.75510562  0.53462801
   0.15919063  0.50132488  0.54996439
   0.16727348  0.70475361  0.36079464
   0.33618709  0.27706916  0.52003065
   0.48650422  0.00163050  0.52386432
   0.50830180  0.28246550  0.35882437
   0.33600810  0.72683704  0.52175476
   0.50291643  0.50155395  0.54399581
   0.50840721  0.71959354  0.35902732
   0.66841980  0.28112661  0.53207356
   0.84089710  0.00221156  0.53342080
   0.83107475  0.27456345  0.36013637
   0.66885638  0.72334773  0.53145377
   0.85112342  0.50250154  0.51835394
   0.83144796  0.72981864  0.35953209
   0.00195694  0.27389527  0.84939482
   0.20036038  0.00078998  0.86625798
   0.19354078  0.23859678  0.69418595
   0.00369138  0.72538514  0.85205043
   0.16790201  0.49700240  0.84352836
   0.19010550  0.76178306  0.69457632
   0.33723120  0.27572551  0.87810589
   0.48346969  0.00096878  0.87341659
   0.48091322  0.24020520  0.69412645
   0.33635073  0.71382759  0.86980023
   0.51801543  0.49967266  0.84066407
   0.48393109  0.76129239  0.69425253
   0.66788514  0.24390170  0.86106792
   0.83531976  0.00144381  0.86328565
   0.83205603  0.29454259  0.69277595
   0.66741338  0.75665521  0.86200087
   0.82470597  0.50111731  0.87593479
   0.83285779  0.71131685  0.69320833
   0.67013082  0.29614278  0.19039861
   0.99753607  0.50292033  0.02322341
   0.33413410  0.50240643  0.02941703
   0.66990086  0.50191058  0.02187797
   0.99619141  0.50094006  0.35530519
   0.33855257  0.50124915  0.35305475
   0.66964012  0.50117286  0.35984307
   0.99880545  0.50400670  0.68618040
   0.33392553  0.00163786  0.67954897
   0.33446748  0.50390812  0.68880609
   0.66869867  0.50456086  0.68762623
   0.16729131  0.24378377  0.18795991
   0.16751950  0.75937803  0.18883965
   0.50522370  0.24059326  0.18778576
   0.50452092  0.76255199  0.18846630
   0.83184264  0.24228189  0.19144921
   0.83133866  0.76040810  0.19171653
   0.16871816  0.75717035  0.51779653
   0.50463132  0.24058664  0.51785338
   0.50502088  0.76363405  0.51841621
   0.83184421  0.23866101  0.52274886
   0.83223087  0.76599045  0.52225150
   0.16456391  0.24828441  0.85620720
   0.16754382  0.76595775  0.85879701
   0.50206125  0.25015889  0.85608141
   0.49984064  0.76001784  0.85862178
   0.83603577  0.24273032  0.85145489
   0.83685322  0.76223626  0.85244030
   0.16890205  0.24707854  0.51756060
   0.33805076  0.04477114  0.96239740
   0.00341375  0.00141404  0.25000552
   0.33450420  0.00096543  0.24475584
   0.88224501  0.00220778  0.02458993
   0.00637427  0.00234180  0.56999089
   0.66389132  0.00115516  0.89891007
Direct configuration=     4
   0.00269714  0.26029048  0.20541666
   0.16479754  0.00051616  0.20672305
   0.15913506  0.27374813  0.02586386
   0.00312576  0.74122193  0.20341966
   0.18045042  0.50014156  0.18636696
   0.16212269  0.72325135  0.02580753
   0.33498574  0.23953182  0.19336646
   0.50341673  0.00072504  0.19087814
   0.50681480  0.28803098  0.02695832
   0.33512290  0.76019213  0.19680601
   0.47754821  0.50024404  0.19553313
   0.50433111  0.71105503  0.02668274
   0.84469685  0.00128426  0.19065808
   0.84490887  0.25203668  0.02622840
   0.66956853  0.70663198  0.18964795
   0.85089169  0.50164912  0.18391158
   0.84442413  0.75112601  0.02617175
   0.00413207  0.24896859  0.53535984
   0.17681434  0.00140003  0.52435540
   0.16774002  0.29694575  0.36075426
   0.00389258  0.75510218  0.53463621
   0.15919232  0.50132451  0.54997451
   0.16727353  0.70474966  0.36080274
   0.33618488  0.27708051  0.52003865
   0.48649876  0.00163067  0.52386947
   0.50829749  0.28247428  0.35883015
   0.33600621  0.72682944  0.52176217
   0.50290936  0.50155371  0.54400421
   0.50840547  0.71959071  0.35903467
   0.66841894  0.28112497  0.53208200
   0.84089502  0.00221116  0.53342871
   0.83107268  0.27456660  0.36014379
   0.66885572  0.72334567  0.53146721
   0.85112127  0.50249895  0.51836498
   0.83144600  0.72981163  0.35953985
   0.00195460  0.27389795  0.84939911
   0.20036016  0.00079255  0.86626457
   0.19354281  0.23860246  0.69419298
   0.00368969  0.72538482  0.85205807
   0.16790323  0.49700488  0.84353063
   0.19010676  0.76177767  0.69458315
   0.33722990  0.27573246  0.87811132
   0.48346761  0.00096959  0.87342550
   0.48090890  0.24020821  0.69413327
   0.33634998  0.71381944  0.86980598
   0.51801259  0.49967400  0.84066670
   0.48392694  0.76128800  0.69425979
   0.66788301  0.24390111  0.86107511
   0.83531881  0.00144331  0.86329339
   0.83205360  0.29454405  0.69278240
   0.66741147  0.75665424  0.86200989
   0.82470584  0.50111809  0.87593863
   0.83285613  0.71131625  0.69321512
   0.67013085  0.29614304  0.19040769
   0.99753511  0.50292069  0.02323219
   0.33413301  0.50240645  0.02942599
   0.66989991  0.50191164  0.02188506
   0.99618949  0.50093951  0.35531378
   0.33855150  0.50124992  0.35306320
   0.66963856  0.50117296  0.35985005
   0.99880318  0.50400675  0.68618920
   0.33392412  0.00163698  0.67955784
   0.33446572  0.50390692  0.68881586
   0.66869789  0.50455930  0.68763442
   0.16729229  0.24377964  0.18796827
   0.16751760  0.75937907  0.18885030
   0.50522375  0.24059179  0.18779343
   0.50452145  0.76255332  0.18847705
   0.83184166  0.24228005  0.19145772
   0.83133678  0.76041019  0.19172579
   0.16871499  0.75717583  0.51780387
   0.50463024  0.24058035  0.51786104
   0.50502053  0.76363783  0.51842702
   0.83184181  0.23865863  0.52275711
   0.83223069  0.76599316  0.52226190
   0.16455940  0.24828470  0.85621792
   0.16754354  0.76596400  0.85880906
   0.50205911  0.25015616  0.85609061
   0.49984063  0.76001769  0.85863161
   0.83603283  0.24273009  0.85146395
   0.83685423  0.76224075  0.85245096
   0.16889678  0.24707672  0.51756944
   0.33804742  0.04477420  0.96241257
   0.00341027  0.00141796  0.25001804
   0.33450363  0.00096424  0.24476890
   0.88224457  0.00220715  0.02459627
   0.00637214  0.00234147  0.56999511
   0.66389071  0.00115609  0.89892566
Direct configuration=     5
   0.00269356  0.26029535  0.20542624
   0.16479898  0.00051723  0.20673397
   0.15913427  0.27375284  0.02587558
   0.00312015  0.74121833  0.20342702
   0.18045358  0.50013881  0.18637958
   0.16212069  0.72324598  0.02581624
   0.33498634  0.23953829  0.19337619
   0.50341498  0.00072638  0.19088657
   0.50681252  0.28803378  0.02696983
   0.33512214  0.76018555  0.19681750
   0.47754257  0.50024422  0.19554478
   0.50432917  0.71105125  0.02669266
   0.84469679  0.00128590  0.19066848
   0.84490870  0.25203891  0.02623768
   0.66956925  0.70663147  0.18965317
   0.85089120  0.50164790  0.18391939
   0.84442560  0.75112541  0.02617967
   0.00412827  0.24897229  0.53536840
   0.17681465  0.00140006  0.52436258
   0.16774150  0.29694981  0.36076422
   0.00389041  0.75509788  0.53464443
   0.15919420  0.50132397  0.54998474
   0.16727360  0.70474499  0.36081107
   0.33618220  0.27709298  0.52004671
   0.48649344  0.00163087  0.52387445
   0.50829295  0.28248402  0.35883585
   0.33600384  0.72682078  0.52176976
   0.50290189  0.50155333  0.54401275
   0.50840345  0.71958662  0.35904225
   0.66841868  0.28112399  0.53209036
   0.84089265  0.00221117  0.53343654
   0.83107087  0.27457078  0.36015114
   0.66885545  0.72334292  0.53148082
   0.85111931  0.50249610  0.51837608
   0.83144434  0.72980354  0.35954756
   0.00195221  0.27390205  0.84940343
   0.20035964  0.00079472  0.86627070
   0.19354536  0.23860925  0.69419887
   0.00368777  0.72538352  0.85206579
   0.16790464  0.49700834  0.84353226
   0.19010853  0.76177134  0.69458938
   0.33722859  0.27574080  0.87811642
   0.48346547  0.00096998  0.87343426
   0.48090413  0.24021233  0.69413930
   0.33634911  0.71381009  0.86981110
   0.51800985  0.49967592  0.84066891
   0.48392240  0.76128249  0.69426666
   0.66788120  0.24390149  0.86108256
   0.83531767  0.00144197  0.86330135
   0.83205108  0.29454697  0.69278733
   0.66740985  0.75665227  0.86201898
   0.82470542  0.50111937  0.87594274
   0.83285435  0.71131437  0.69322119
   0.67013132  0.29614409  0.19041646
   0.99753416  0.50292109  0.02324080
   0.33413200  0.50240651  0.02943483
   0.66989887  0.50191274  0.02189201
   0.99618751  0.50093897  0.35532240
   0.33855049  0.50125076  0.35307162
   0.66963694  0.50117310  0.35985707
   0.99880088  0.50400687  0.68619799
   0.33392271  0.00163607  0.67956676
   0.33446397  0.50390577  0.68882561
   0.66869708  0.50455782  0.68764260
   0.16729339  0.24377479  0.18797644
   0.16751596  0.75938073  0.18886082
   0.50522387  0.24058941  0.18780099
   0.50452196  0.76255545  0.18848779
   0.83184055  0.24227738  0.19146629
   0.83133477  0.76041310  0.19173516
   0.16871187  0.75718174  0.51781103
   0.50462931  0.24057319  0.51786877
   0.50502035  0.76364242  0.51843787
   0.83183924  0.23865530  0.52276550
   0.83223035  0.76599683  0.52227239
   0.16455476  0.24828397  0.85622879
   0.16754315  0.76597116  0.85882144
   0.50205692  0.25015287  0.85609988
   0.49984051  0.76001801  0.85864167
   0.83603012  0.24272903  0.85147305
   0.83685543  0.76224583  0.85246159
   0.16889152  0.24707449  0.51757822
   0.33804451  0.04477768  0.96242859
   0.00340620  0.00142218  0.25003110
   0.33450310  0.00096320  0.24478217
   0.88224443  0.00220632  0.02460253
   0.00637005  0.00234097  0.56999998
   0.66389020  0.00115688  0.89894131
Direct configuration=     6
   0.00268929  0.26030156  0.20543575
   0.16480049  0.00051890  0.20674498
   0.15913342  0.27375906  0.02588837
   0.00311360  0.74121333  0.20343439
   0.18045689  0.50013571  0.18639251
   0.16211848  0.72323926  0.02582544
   0.33498697  0.23954601  0.19338619
   0.50341340  0.00072846  0.19089489
   0.50681039  0.28803810  0.02698206
   0.33512132  0.76017745  0.19682942
   0.47753649  0.50024386  0.19555655
   0.50432754  0.71104603  0.02670286
   0.84469659  0.00128801  0.19067875
   0.84490856  0.25204243  0.02624795
   0.66957064  0.70662968  0.18965813
   0.85089084  0.50164638  0.18392690
   0.84442718  0.75112328  0.02618795
   0.00412414  0.24897716  0.53537689
   0.17681509  0.00140043  0.52436980
   0.16774304  0.29695478  0.36077427
   0.00388794  0.75509249  0.53465272
   0.15919622  0.50132321  0.54999511
   0.16727365  0.70473930  0.36081968
   0.33617901  0.27710672  0.52005489
   0.48648820  0.00163112  0.52387934
   0.50828814  0.28249508  0.35884148
   0.33600098  0.72681086  0.52177761
   0.50289401  0.50155280  0.54402146
   0.50840110  0.71958092  0.35905011
   0.66841910  0.28112399  0.53209864
   0.84088996  0.00221169  0.53344428
   0.83106937  0.27457634  0.36015845
   0.66885559  0.72333915  0.53149461
   0.85111760  0.50249297  0.51838726
   0.83144303  0.72979400  0.35955525
   0.00194971  0.27390808  0.84940776
   0.20035889  0.00079636  0.86627619
   0.19354864  0.23861726  0.69420326
   0.00368551  0.72538082  0.85207356
   0.16790625  0.49701310  0.84353313
   0.19011099  0.76176396  0.69459474
   0.33722718  0.27575081  0.87812119
   0.48346319  0.00096990  0.87344276
   0.48089873  0.24021766  0.69414421
   0.33634806  0.71379924  0.86981548
   0.51800728  0.49967858  0.84067066
   0.48391728  0.76127577  0.69427295
   0.66787975  0.24390313  0.86109036
   0.83531630  0.00143957  0.86330966
   0.83204846  0.29455182  0.69279029
   0.66740861  0.75664903  0.86202821
   0.82470463  0.50112127  0.87594720
   0.83285246  0.71131079  0.69322632
   0.67013224  0.29614629  0.19042486
   0.99753314  0.50292149  0.02324948
   0.33413102  0.50240659  0.02944382
   0.66989782  0.50191383  0.02189893
   0.99618543  0.50093843  0.35533105
   0.33854953  0.50125161  0.35307991
   0.66963531  0.50117326  0.35986413
   0.99879861  0.50400702  0.68620673
   0.33392127  0.00163511  0.67957574
   0.33446218  0.50390466  0.68883538
   0.66869625  0.50455636  0.68765082
   0.16729462  0.24376907  0.18798440
   0.16751464  0.75938314  0.18887119
   0.50522408  0.24058595  0.18780847
   0.50452245  0.76255853  0.18849852
   0.83183931  0.24227374  0.19147493
   0.83133261  0.76041697  0.19174463
   0.16870882  0.75718813  0.51781803
   0.50462853  0.24056503  0.51787660
   0.50502036  0.76364796  0.51844876
   0.83183647  0.23865087  0.52277410
   0.83222980  0.76600156  0.52228298
   0.16454997  0.24828197  0.85623988
   0.16754263  0.76597941  0.85883421
   0.50205468  0.25014885  0.85610924
   0.49984028  0.76001892  0.85865201
   0.83602766  0.24272697  0.85148221
   0.83685685  0.76225165  0.85247221
   0.16888626  0.24707175  0.51758698
   0.33804211  0.04478170  0.96244564
   0.00340148  0.00142670  0.25004477
   0.33450261  0.00096238  0.24479565
   0.88224462  0.00220523  0.02460866
   0.00636803  0.00234029  0.57000562
   0.66388991  0.00115746  0.89895706
Direct configuration=     7
   0.00268418  0.26030950  0.20544521
   0.16480209  0.00052140  0.20675608
   0.15913254  0.27376734  0.02590263
   0.00310589  0.74120649  0.20344178
   0.18046039  0.50013214  0.18640578
   0.16211612  0.72323066  0.02583541
   0.33498767  0.23955543  0.19339651
   0.50341199  0.00073156  0.19090306
   0.50680834  0.28804447  0.02699535
   0.33512047  0.76016736  0.19684182
   0.47752983  0.50024286  0.19556838
   0.50432615  0.71103885  0.02671352
   0.84469623  0.00129074  0.19068884
   0.84490848  0.25204757  0.02625953
   0.66957281  0.70662624  0.18966276
   0.85089071  0.50164446  0.18393405
   0.84442890  0.75111928  0.02619675
   0.00411968  0.24898356  0.53538522
   0.17681561  0.00140126  0.52437697
   0.16774467  0.29696099  0.36078423
   0.00388515  0.75508563  0.53466107
   0.15919839  0.50132216  0.55000553
   0.16727370  0.70473225  0.36082849
   0.33617517  0.27712221  0.52006307
   0.48648310  0.00163149  0.52388399
   0.50828289  0.28250786  0.35884673
   0.33599754  0.72679919  0.52178567
   0.50288562  0.50155210  0.54403026
   0.50839827  0.71957313  0.35905805
   0.66842036  0.28112524  0.53210676
   0.84088686  0.00221294  0.53345185
   0.83106834  0.27458365  0.36016560
   0.66885629  0.72333408  0.53150853
   0.85111626  0.50248946  0.51839841
   0.83144223  0.72978259  0.35956281
   0.00194705  0.27391669  0.84941216
   0.20035786  0.00079731  0.86628100
   0.19355271  0.23862699  0.69420561
   0.00368281  0.72537626  0.85208139
   0.16790813  0.49701973  0.84353314
   0.19011421  0.76175507  0.69459879
   0.33722546  0.27576311  0.87812572
   0.48346076  0.00096929  0.87345106
   0.48089259  0.24022462  0.69414759
   0.33634671  0.71378628  0.86981911
   0.51800488  0.49968226  0.84067194
   0.48391152  0.76126744  0.69427839
   0.66787878  0.24390636  0.86109868
   0.83531464  0.00143598  0.86331850
   0.83204576  0.29455912  0.69279069
   0.66740787  0.75664417  0.86203768
   0.82470340  0.50112391  0.87595217
   0.83285049  0.71130506  0.69323015
   0.67013366  0.29614990  0.19043281
   0.99753208  0.50292194  0.02325804
   0.33413013  0.50240672  0.02945271
   0.66989669  0.50191496  0.02190568
   0.99618327  0.50093789  0.35533972
   0.33854867  0.50125252  0.35308814
   0.66963361  0.50117346  0.35987126
   0.99879633  0.50400724  0.68621543
   0.33391981  0.00163410  0.67958478
   0.33446038  0.50390364  0.68884515
   0.66869537  0.50455498  0.68765904
   0.16729595  0.24376217  0.18799210
   0.16751362  0.75938657  0.18888135
   0.50522446  0.24058103  0.18781591
   0.50452300  0.76256288  0.18850926
   0.83183788  0.24226887  0.19148367
   0.83133024  0.76042205  0.19175429
   0.16870587  0.75719517  0.51782491
   0.50462794  0.24055557  0.51788462
   0.50502062  0.76365471  0.51845974
   0.83183343  0.23864502  0.52278298
   0.83222896  0.76600765  0.52229375
   0.16454503  0.24827827  0.85625123
   0.16754195  0.76598903  0.85884745
   0.50205239  0.25014383  0.85611869
   0.49983996  0.76002061  0.85866263
   0.83602548  0.24272367  0.85149139
   0.83685855  0.76225836  0.85248274
   0.16888107  0.24706828  0.51759580
   0.33804039  0.04478636  0.96246389
   0.00339598  0.00143156  0.25005914
   0.33450215  0.00096187  0.24480936
   0.88224515  0.00220377  0.02461458
   0.00636622  0.00233941  0.57001220
   0.66388994  0.00115776  0.89897285
Direct configuration=     8
   0.00267930  0.26031728  0.20545445
   0.16480360  0.00052350  0.20676722
   0.15913155  0.27377533  0.02591644
   0.00309858  0.74119988  0.20344904
   0.18046368  0.50012879  0.18641910
   0.16211353  0.72322250  0.02584532
   0.33498800  0.23956445  0.19340679
   0.50341058  0.00073420  0.19091117
   0.50680645  0.28805068  0.02700802
   0.33511925  0.76015746  0.19685427
   0.47752337  0.50024188  0.19558019
   0.50432507  0.71103192  0.02672401
   0.84469595  0.00129325  0.19069884
   0.84490835  0.25205262  0.02627069
   0.66957497  0.70662278  0.18966736
   0.85089045  0.50164267  0.18394111
   0.84443061  0.75111518  0.02620543
   0.00411499  0.24898978  0.53539355
   0.17681599  0.00140194  0.52438412
   0.16774619  0.29696690  0.36079412
   0.00388219  0.75507909  0.53466940
   0.15920061  0.50132118  0.55001598
   0.16727361  0.70472555  0.36083718
   0.33617140  0.27713747  0.52007136
   0.48647807  0.00163173  0.52388863
   0.50827784  0.28252034  0.35885250
   0.33599396  0.72678781  0.52179379
   0.50287730  0.50155137  0.54403916
   0.50839557  0.71956545  0.35906637
   0.66842149  0.28112642  0.53211487
   0.84088397  0.00221388  0.53345956
   0.83106729  0.27459095  0.36017277
   0.66885689  0.72332920  0.53152254
   0.85111488  0.50248606  0.51840968
   0.83144142  0.72977127  0.35957043
   0.00194441  0.27392507  0.84941661
   0.20035677  0.00079880  0.86628590
   0.19355673  0.23863679  0.69420862
   0.00368025  0.72537198  0.85208935
   0.16790992  0.49702537  0.84353319
   0.19011735  0.76174631  0.69460364
   0.33722415  0.27577516  0.87812997
   0.48345832  0.00096876  0.87345940
   0.48088657  0.24023182  0.69415155
   0.33634544  0.71377379  0.86982246
   0.51800240  0.49968552  0.84067317
   0.48390583  0.76125893  0.69428423
   0.66787789  0.24390950  0.86110696
   0.83531286  0.00143263  0.86332738
   0.83204299  0.29456625  0.69279178
   0.66740710  0.75663942  0.86204706
   0.82470212  0.50112642  0.87595705
   0.83284844  0.71129942  0.69323442
   0.67013508  0.29615368  0.19044056
   0.99753106  0.50292237  0.02326678
   0.33412922  0.50240687  0.02946176
   0.66989555  0.50191610  0.02191253
   0.99618115  0.50093733  0.35534838
   0.33854777  0.50125343  0.35309629
   0.66963189  0.50117366  0.35987838
   0.99879418  0.50400749  0.68622407
   0.33391830  0.00163300  0.67959388
   0.33445851  0.50390263  0.68885495
   0.66869443  0.50455363  0.68766733
   0.16729740  0.24375575  0.18799997
   0.16751280  0.75938949  0.18889167
   0.50522474  0.24057650  0.18782333
   0.50452339  0.76256683  0.18852002
   0.83183649  0.24226418  0.19149252
   0.83132794  0.76042702  0.19176388
   0.16870301  0.75720178  0.51783164
   0.50462727  0.24054646  0.51789250
   0.50502082  0.76366113  0.51847071
   0.83183046  0.23863936  0.52279172
   0.83222816  0.76601361  0.52230445
   0.16454011  0.24827516  0.85626244
   0.16754127  0.76599831  0.85886056
   0.50204996  0.25013924  0.85612817
   0.49983948  0.76002191  0.85867336
   0.83602339  0.24272053  0.85150059
   0.83686027  0.76226454  0.85249330
   0.16887593  0.24706526  0.51760440
   0.33803870  0.04479142  0.96248204
   0.00339030  0.00143663  0.25007354
   0.33450179  0.00096135  0.24482302
   0.88224577  0.00220242  0.02462084
   0.00636402  0.00233846  0.57001881
   0.66388983  0.00115807  0.89898867
Direct configuration=     9
   0.00267475  0.26032451  0.20546341
   0.16480502  0.00052513  0.20677828
   0.15913047  0.27378231  0.02592983
   0.00309178  0.74119391  0.20345615
   0.18046675  0.50012573  0.18643227
   0.16211073  0.72321562  0.02585523
   0.33498792  0.23957264  0.19341692
   0.50340932  0.00073626  0.19091921
   0.50680474  0.28805618  0.02702009
   0.33511761  0.76014823  0.19686667
   0.47751721  0.50024100  0.19559192
   0.50432432  0.71102597  0.02673440
   0.84469555  0.00129548  0.19070884
   0.84490814  0.25205736  0.02628141
   0.66957712  0.70662003  0.18967200
   0.85089003  0.50164107  0.18394807
   0.84443228  0.75111118  0.02621402
   0.00411020  0.24899537  0.53540188
   0.17681613  0.00140243  0.52439106
   0.16774755  0.29697188  0.36080399
   0.00387915  0.75507326  0.53467764
   0.15920280  0.50132031  0.55002640
   0.16727336  0.70471997  0.36084583
   0.33616771  0.27715188  0.52007974
   0.48647343  0.00163180  0.52389304
   0.50827311  0.28253177  0.35885888
   0.33599024  0.72677734  0.52180194
   0.50286927  0.50155065  0.54404807
   0.50839314  0.71955867  0.35907514
   0.66842239  0.28112683  0.53212291
   0.84088114  0.00221446  0.53346735
   0.83106614  0.27459772  0.36017995
   0.66885733  0.72332528  0.53153654
   0.85111337  0.50248283  0.51842100
   0.83144049  0.72976062  0.35957809
   0.00194193  0.27393241  0.84942117
   0.20035530  0.00080072  0.86629113
   0.19356048  0.23864627  0.69421258
   0.00367797  0.72536886  0.85209748
   0.16791145  0.49702998  0.84353336
   0.19012023  0.76173813  0.69460950
   0.33722320  0.27578638  0.87813393
   0.48345603  0.00096822  0.87346785
   0.48088091  0.24023886  0.69415632
   0.33634419  0.71376246  0.86982561
   0.51799989  0.49968826  0.84067439
   0.48390044  0.76125068  0.69429062
   0.66787709  0.24391222  0.86111514
   0.83531107  0.00142957  0.86333609
   0.83204015  0.29457251  0.69279383
   0.66740627  0.75663513  0.86205628
   0.82470085  0.50112871  0.87596184
   0.83284631  0.71129457  0.69323935
   0.67013652  0.29615697  0.19044814
   0.99753010  0.50292282  0.02327549
   0.33412833  0.50240705  0.02947083
   0.66989433  0.50191724  0.02191941
   0.99617906  0.50093675  0.35535707
   0.33854684  0.50125437  0.35310446
   0.66963013  0.50117389  0.35988550
   0.99879206  0.50400779  0.68623270
   0.33391678  0.00163187  0.67960298
   0.33445664  0.50390162  0.68886472
   0.66869346  0.50455233  0.68767562
   0.16729884  0.24374977  0.18800796
   0.16751217  0.75939207  0.18890211
   0.50522497  0.24057219  0.18783076
   0.50452369  0.76257055  0.18853079
   0.83183509  0.24225951  0.19150150
   0.83132563  0.76043206  0.19177345
   0.16870025  0.75720799  0.51783818
   0.50462656  0.24053759  0.51790022
   0.50502100  0.76366732  0.51848165