unknown system                          
           1
    11.636000    0.000000    0.000000
     0.000000    7.905000    0.000000
     0.000000    0.000000   11.636000
   O    La   Ti   Li
    54    10    18     6
Direct configuration=     1
   0.00060799  0.25779992  0.18207046
   0.16572746  0.00074204  0.18675309
   0.16115438  0.28003300  0.00966687
   0.00116367  0.74481341  0.18090841
   0.17795386  0.50060578  0.17139831
   0.16373144  0.71797555  0.00946331
   0.33497343  0.23989623  0.17616635
   0.50326835  0.00094933  0.17953051
   0.51091964  0.27789035  0.00956366
   0.33497574  0.76002054  0.18013444
   0.47565726  0.49996457  0.17432569
   0.50771584  0.72050147  0.00985304
   0.83670725  0.00162487  0.17378991
   0.82890867  0.25097942  0.00786355
   0.66820416  0.70261956  0.17795900
   0.85187241  0.50185214  0.16617407
   0.82956199  0.75214150  0.00828372
   0.00399625  0.25125822  0.51526800
   0.17680830  0.00140755  0.50654626
   0.16588916  0.29581099  0.34267032
   0.00362699  0.75266810  0.51510635
   0.15873016  0.50126928  0.53230657
   0.16540024  0.70630640  0.34298149
   0.33479974  0.28029038  0.50189500
   0.48551488  0.00183524  0.51005124
   0.50677699  0.28502214  0.34334705
   0.33468548  0.72369911  0.50394348
   0.50672643  0.50140163  0.52618788
   0.50660847  0.71715225  0.34362941
   0.66807477  0.27326186  0.51900182
   0.84096215  0.00226662  0.52247990
   0.83126809  0.27375443  0.34406561
   0.66845646  0.73058765  0.51803920
   0.84583880  0.50253344  0.49954685
   0.83164332  0.73118975  0.34356283
   0.00088718  0.27948592  0.83968453
   0.19973480  0.00093416  0.85195566
   0.18982021  0.23651206  0.67777882
   0.00256203  0.72063573  0.84114193
   0.16740278  0.49718344  0.82319660
   0.18635846  0.76380020  0.67831593
   0.33594463  0.27792674  0.86200343
   0.47572779  0.00136481  0.84615761
   0.47493831  0.24576519  0.67687834
   0.33531273  0.71222269  0.85316619
   0.51884697  0.49957453  0.82960589
   0.47876896  0.75688652  0.67671192
   0.66620332  0.23755238  0.82394274
   0.83443856  0.00112288  0.83749814
   0.83780675  0.29774889  0.67611257
   0.66520563  0.76280988  0.82742956
   0.81783132  0.50148392  0.85902768
   0.83748557  0.70869175  0.67654163
   0.66875739  0.30107420  0.17844867
   0.99994200  0.50231922  0.00990007
   0.33481341  0.50295340  0.01261964
   0.67103647  0.50286891  0.01095946
   0.99628823  0.50097254  0.34136462
   0.33850921  0.50164386  0.33680673
   0.66900573  0.50147823  0.35001937
   0.00129011  0.50424514  0.67124680
   0.33406090  0.00164417  0.66655402
   0.33532875  0.50400653  0.67342343
   0.67054065  0.50434074  0.67656503
   0.16834703  0.24427772  0.17201244
   0.16836256  0.75901633  0.17285572
   0.50634368  0.24083928  0.17363843
   0.50543749  0.76347464  0.17521996
   0.83114581  0.24325274  0.18024110
   0.83091122  0.75996037  0.17978709
   0.16936437  0.75765121  0.50107203
   0.50407390  0.24156174  0.50406655
   0.50457821  0.76355591  0.50511305
   0.83250417  0.23912726  0.51113502
   0.83274933  0.76601393  0.50988467
   0.16610744  0.24940744  0.84045652
   0.16923633  0.76561859  0.84324774
   0.50460733  0.24944794  0.84196292
   0.50201477  0.76246401  0.84524634
   0.83817934  0.24323314  0.83951691
   0.83934987  0.76057142  0.83972715
   0.16955307  0.24662536  0.50059797
   0.33763665  0.04821306  0.94631545
   0.00210845  0.00167514  0.20838650
   0.33436451  0.00113014  0.22792159
   0.82028398  0.00183483  0.00761467
   0.00717923  0.00227243  0.54738444
   0.67238178  0.99995812  0.77917555
Direct configuration=     2
   0.00062632  0.25781858  0.18207803
   0.16572436  0.00075643  0.18675489
   0.16116025  0.28005647  0.00967591
   0.00117375  0.74477633  0.18091148
   0.17796831  0.50059568  0.17140148
   0.16373675  0.71793533  0.00947284
   0.33495590  0.23991494  0.17615639
   0.50326653  0.00097199  0.17951659
   0.51091541  0.27791821  0.00953780
   0.33496304  0.76000401  0.18013069
   0.47563689  0.49996130  0.17433278
   0.50770685  0.72046075  0.00983021
   0.83672236  0.00162622  0.17378847
   0.82891369  0.25100047  0.00786389
   0.66820760  0.70259174  0.17795266
   0.85188179  0.50185044  0.16617659
   0.82956882  0.75211404  0.00828420
   0.00400842  0.25127587  0.51527020
   0.17680091  0.00140945  0.50653970
   0.16590068  0.29583525  0.34266754
   0.00363449  0.75265135  0.51511030
   0.15872553  0.50127405  0.53230939
   0.16540351  0.70628178  0.34298945
   0.33479224  0.28032622  0.50188928
   0.48550990  0.00183584  0.51005582
   0.50676802  0.28504198  0.34335037
   0.33467874  0.72368153  0.50394743
   0.50671317  0.50140539  0.52618704
   0.50659622  0.71713035  0.34364155
   0.66807211  0.27328445  0.51900356
   0.84096392  0.00228157  0.52247235
   0.83127453  0.27377049  0.34407461
   0.66845122  0.73056988  0.51804764
   0.84585533  0.50253342  0.49954804
   0.83164921  0.73117127  0.34357625
   0.00089769  0.27950697  0.83968120
   0.19974369  0.00093685  0.85195881
   0.18983553  0.23652008  0.67775110
   0.00256525  0.72062417  0.84113631
   0.16741495  0.49719245  0.82317633
   0.18637316  0.76380222  0.67828703
   0.33595542  0.27795073  0.86200191
   0.47574214  0.00137377  0.84615052
   0.47492327  0.24578275  0.67687138
   0.33532457  0.71219808  0.85316698
   0.51883157  0.49957509  0.82958045
   0.47875694  0.75687461  0.67671101
   0.66618779  0.23757366  0.82393375
   0.83442432  0.00113104  0.83750268
   0.83780442  0.29778293  0.67610089
   0.66519790  0.76279201  0.82742998
   0.81782997  0.50148206  0.85902657
   0.83748452  0.70865298  0.67653089
   0.66875328  0.30108847  0.17844367
   0.99993579  0.50232634  0.00990180
   0.33480827  0.50294937  0.01262623
   0.67103748  0.50286568  0.01095538
   0.99628962  0.50097192  0.34136367
   0.33851164  0.50164580  0.33680739
   0.66900404  0.50147807  0.35001698
   0.00128803  0.50424431  0.67124213
   0.33406663  0.00163949  0.66654862
   0.33532220  0.50400412  0.67342127
   0.67054232  0.50434000  0.67656216
   0.16834606  0.24426345  0.17200524
   0.16836299  0.75902431  0.17284717
   0.50634865  0.24082597  0.17364382
   0.50544267  0.76348420  0.17521834
   0.83114254  0.24323921  0.18023562
   0.83090785  0.75996631  0.17978429
   0.16936187  0.75765713  0.50107045
   0.50408118  0.24155044  0.50406624
   0.50458415  0.76355995  0.50510683
   0.83250605  0.23912538  0.51112955
   0.83274454  0.76603769  0.50987874
   0.16609990  0.24938398  0.84045406
   0.16922812  0.76562787  0.84324659
   0.50460610  0.24944441  0.84196197
   0.50201582  0.76246452  0.84524825
   0.83818675  0.24322164  0.83951629
   0.83935698  0.76057237  0.83972633
   0.16955042  0.24661968  0.50059749
   0.33765396  0.04821610  0.94632437
   0.00210564  0.00167337  0.20841169
   0.33435572  0.00113601  0.22792061
   0.82029894  0.00183678  0.00760982
   0.00718105  0.00227557  0.54738664
   0.67235807  0.99996944  0.77920538
Direct configuration=     3
   0.00066062  0.25785629  0.18208877
   0.16572299  0.00078804  0.18675739
   0.16117130  0.28010459  0.00969806
   0.00119301  0.74471819  0.18091750
   0.17798881  0.50057682  0.17140730
   0.16374760  0.71786658  0.00949367
   0.33492740  0.23995438  0.17614765
   0.50326240  0.00101343  0.17950128
   0.51090721  0.27796760  0.00949423
   0.33493896  0.75996422  0.18013007
   0.47559882  0.49995216  0.17433896
   0.50769351  0.72039719  0.00978919
   0.83674123  0.00163430  0.17378717
   0.82891696  0.25103518  0.00786836
   0.66821364  0.70253984  0.17794466
   0.85190193  0.50184371  0.16617636
   0.82957394  0.75207223  0.00828644
   0.00403277  0.25131069  0.51527268
   0.17679641  0.00141621  0.50653174
   0.16591464  0.29587980  0.34266167
   0.00365433  0.75261627  0.51511617
   0.15872281  0.50127718  0.53231619
   0.16540843  0.70623345  0.34300108
   0.33477773  0.28038467  0.50188429
   0.48549883  0.00184129  0.51006428
   0.50675079  0.28508447  0.34335808
   0.33466693  0.72363967  0.50395396
   0.50669061  0.50140831  0.52619676
   0.50657671  0.71708204  0.34366445
   0.66806506  0.27332810  0.51901004
   0.84096659  0.00230411  0.52246588
   0.83128734  0.27380937  0.34409265
   0.66844044  0.73053049  0.51806239
   0.84588205  0.50252995  0.49955068
   0.83166144  0.73112840  0.34359955
   0.00091491  0.27954835  0.83967510
   0.19975951  0.00094973  0.85195691
   0.18986156  0.23654175  0.67769883
   0.00256972  0.72059189  0.84112707
   0.16743877  0.49721576  0.82314511
   0.18639957  0.76378995  0.67823096
   0.33597850  0.27800115  0.86200248
   0.47575520  0.00139247  0.84613829
   0.47489931  0.24581604  0.67686541
   0.33535037  0.71214195  0.85316414
   0.51881651  0.49957801  0.82954575
   0.47873466  0.75684539  0.67671031
   0.66615792  0.23760558  0.82391885
   0.83440322  0.00114436  0.83750618
   0.83780158  0.29784652  0.67607847
   0.66518025  0.76276246  0.82742320
   0.81781774  0.50147843  0.85902755
   0.83748265  0.70858295  0.67650788
   0.66874672  0.30112261  0.17843709
   0.99992890  0.50233381  0.00990396
   0.33480325  0.50294574  0.01263337
   0.67103927  0.50286272  0.01095149
   0.99628957  0.50097158  0.34136249
   0.33851489  0.50164806  0.33680714
   0.66900277  0.50147827  0.35001424
   0.00128528  0.50424384  0.67123742
   0.33407209  0.00163455  0.66654364
   0.33531552  0.50400239  0.67341938
   0.67054468  0.50433961  0.67655932
   0.16834252  0.24423577  0.17199653
   0.16836293  0.75904340  0.17283560
   0.50635911  0.24079916  0.17365266
   0.50545216  0.76350398  0.17521776
   0.83113466  0.24321755  0.18022770
   0.83090051  0.75997953  0.17978033
   0.16935727  0.75766874  0.50107132
   0.50409374  0.24152975  0.50406371
   0.50459551  0.76357148  0.50509672
   0.83250488  0.23911168  0.51112298
   0.83273663  0.76607205  0.50987124
   0.16608594  0.24934434  0.84045481
   0.16921227  0.76564477  0.84325053
   0.50460548  0.24943203  0.84196479
   0.50201843  0.76246910  0.84525604
   0.83819774  0.24320272  0.83951793
   0.83936807  0.76057935  0.83972800
   0.16954582  0.24660696  0.50060116
   0.33767953  0.04822185  0.94634501
   0.00209659  0.00167348  0.20843822
   0.33434446  0.00114992  0.22792194
   0.82031314  0.00183677  0.00760475
   0.00718705  0.00227783  0.54739488
   0.67233412  0.99998107  0.77923557
Direct configuration=     4
   0.00069381  0.25789324  0.18209960
   0.16572165  0.00081881  0.18675971
   0.16118224  0.28015135  0.00971955
   0.00121165  0.74466093  0.18092345
   0.17800894  0.50055849  0.17141328
   0.16375856  0.71779919  0.00951374
   0.33489965  0.23999301  0.17613870
   0.50325867  0.00105401  0.17948603
   0.51089913  0.27801593  0.00945237
   0.33491562  0.75992507  0.18012911
   0.47556121  0.49994362  0.17434491
   0.50768022  0.72033462  0.00974976
   0.83675981  0.00164223  0.17378625
   0.82892022  0.25106932  0.00787241
   0.66821968  0.70248947  0.17793663
   0.85192162  0.50183691  0.16617577
   0.82957924  0.75203158  0.00828832
   0.00405606  0.25134522  0.51527499
   0.17679195  0.00142269  0.50652337
   0.16592825  0.29592308  0.34265583
   0.00367319  0.75258132  0.51512189
   0.15872003  0.50128073  0.53232326
   0.16541329  0.70618596  0.34301238
   0.33476344  0.28044205  0.50187904
   0.48548774  0.00184685  0.51007237
   0.50673391  0.28512529  0.34336572
   0.33465544  0.72359855  0.50395995
   0.50666813  0.50141140  0.52620633
   0.50655778  0.71703470  0.34368631
   0.66805864  0.27337147  0.51901597
   0.84096885  0.00232664  0.52245936
   0.83129998  0.27384681  0.34410976
   0.66843022  0.73049222  0.51807675
   0.84590866  0.50252644  0.49955379
   0.83167359  0.73108621  0.34362210
   0.00093176  0.27958820  0.83966887
   0.19977455  0.00096159  0.85195490
   0.18988684  0.23656280  0.67764854
   0.00257407  0.72056120  0.84111802
   0.16746255  0.49723821  0.82311439
   0.18642531  0.76377837  0.67817718
   0.33600088  0.27805148  0.86200309
   0.47576855  0.00141044  0.84612615
   0.47487552  0.24584834  0.67685991
   0.33537551  0.71208686  0.85316144
   0.51880120  0.49958068  0.82951092
   0.47871255  0.75681644  0.67671002
   0.66612878  0.23763754  0.82390414
   0.83438200  0.00115795  0.83750991
   0.83779852  0.29790861  0.67605752
   0.66516278  0.76273282  0.82741674
   0.81780599  0.50147507  0.85902853
   0.83748030  0.70851467  0.67648577
   0.66874053  0.30115565  0.17843077
   0.99992222  0.50234118  0.00990629
   0.33479825  0.50294201  0.01264058
   0.67104098  0.50285969  0.01094757
   0.99628959  0.50097121  0.34136141
   0.33851793  0.50165025  0.33680692
   0.66900158  0.50147845  0.35001152
   0.00128266  0.50424335  0.67123240
   0.33407755  0.00162972  0.66653866
   0.33530883  0.50400064  0.67341750
   0.67054694  0.50433920  0.67655635
   0.16833907  0.24420873  0.17198789
   0.16836291  0.75906202  0.17282433
   0.50636931  0.24077294  0.17366122
   0.50546168  0.76352356  0.17521722
   0.83112681  0.24319624  0.18021977
   0.83089335  0.75999249  0.17977642
   0.16935269  0.75768001  0.50107209
   0.50410623  0.24150935  0.50406128
   0.50460677  0.76358248  0.50508687
   0.83250383  0.23909868  0.51111663
   0.83272908  0.76610579  0.50986389
   0.16607233  0.24930526  0.84045528
   0.16919680  0.76566184  0.84325418
   0.50460479  0.24942021  0.84196741
   0.50202113  0.76247372  0.84526356
   0.83820849  0.24318434  0.83951906
   0.83937906  0.76058572  0.83972926
   0.16954131  0.24659469  0.50060479
   0.33770541  0.04822709  0.94636519
   0.00208802  0.00167317  0.20846510
   0.33433295  0.00116482  0.22792389
   0.82032771  0.00183749  0.00759957
   0.00719316  0.00228035  0.54740349
   0.67230966  0.99999264  0.77926654
Direct configuration=     5
   0.00072502  0.25792958  0.18211049
   0.16572028  0.00084814  0.18676192
   0.16119285  0.28019704  0.00973956
   0.00122905  0.74460460  0.18092928
   0.17802864  0.50054108  0.17141921
   0.16376944  0.71773317  0.00953238
   0.33487342  0.24003059  0.17612950
   0.50325528  0.00109290  0.17947091
   0.51089138  0.27806348  0.00941287
   0.33489381  0.75988700  0.18012779
   0.47552417  0.49993606  0.17435051
   0.50766718  0.72027300  0.00971280
   0.83677813  0.00164973  0.17378557
   0.82892348  0.25110288  0.00787611
   0.66822554  0.70244059  0.17792856
   0.85194089  0.50183011  0.16617463
   0.82958473  0.75199221  0.00828987
   0.00407774  0.25137947  0.51527722
   0.17678764  0.00142888  0.50651469
   0.16594137  0.29596547  0.34264998
   0.00369046  0.75254660  0.51512755
   0.15871684  0.50128471  0.53233089
   0.16541799  0.70613905  0.34302295
   0.33474978  0.28049833  0.50187349
   0.48547653  0.00185250  0.51008008
   0.50671758  0.28516457  0.34337283
   0.33464464  0.72355824  0.50396536
   0.50664616  0.50141468  0.52621573
   0.50653965  0.71698831  0.34370633
   0.66805302  0.27341465  0.51902135
   0.84097084  0.00234888  0.52245290
   0.83131235  0.27388287  0.34412555
   0.66842084  0.73045505  0.51809068
   0.84593506  0.50252297  0.49955711
   0.83168552  0.73104476  0.34364345
   0.00094787  0.27962658  0.83966256
   0.19978904  0.00097261  0.85195287
   0.18991154  0.23658283  0.67760073
   0.00257811  0.72053216  0.84110926
   0.16748598  0.49725988  0.82308412
   0.18645050  0.76376795  0.67812637
   0.33602214  0.27810177  0.86200389
   0.47578195  0.00142764  0.84611411
   0.47485168  0.24587930  0.67685464
   0.33539952  0.71203285  0.85315900
   0.51878604  0.49958328  0.82947594
   0.47869046  0.75678811  0.67670999
   0.66610126  0.23766953  0.82388949
   0.83436063  0.00117156  0.83751394
   0.83779532  0.29796941  0.67603841
   0.66514627  0.76270312  0.82741055
   0.81779472  0.50147213  0.85902981
   0.83747755  0.70844812  0.67646493
   0.66873485  0.30118788  0.17842473
   0.99991571  0.50234846  0.00990870
   0.33479331  0.50293818  0.01264784
   0.67104258  0.50285660  0.01094356
   0.99628974  0.50097081  0.34136041
   0.33852076  0.50165236  0.33680678
   0.66900046  0.50147862  0.35000883
   0.00128019  0.50424284  0.67122715
   0.33408301  0.00162498  0.66653368
   0.33530216  0.50399883  0.67341568
   0.67054908  0.50433878  0.67655329
   0.16833574  0.24418271  0.17197950
   0.16836295  0.75907992  0.17281356
   0.50637902  0.24074771  0.17366950
   0.50547102  0.76354256  0.17521670
   0.83111916  0.24317557  0.18021191
   0.83088657  0.76000498  0.17977263
   0.16934820  0.75769079  0.50107277
   0.50411846  0.24148942  0.50405912
   0.50461772  0.76359280  0.50507751
   0.83250299  0.23908668  0.51111050
   0.83272198  0.76613866  0.50985673
   0.16605928  0.24926694  0.84045547
   0.16918189  0.76567866  0.84325744
   0.50460391  0.24940911  0.84196978
   0.50202379  0.76247813  0.84527063
   0.83821888  0.24316673  0.83951955
   0.83938983  0.76059126  0.83972997
   0.16953698  0.24658301  0.50060833
   0.33773146  0.04823194  0.94638473
   0.00208011  0.00167250  0.20849245
   0.33432124  0.00118068  0.22792644
   0.82034266  0.00183890  0.00759429
   0.00719938  0.00228315  0.54741242
   0.67228464  1.00000407  0.77929825
Direct configuration=     6
   0.00075315  0.25796482  0.18212137
   0.16571879  0.00087534  0.18676403
   0.16120292  0.28024154  0.00975726
   0.00124441  0.74454965  0.18093493
   0.17804774  0.50052509  0.17142524
   0.16378002  0.71766859  0.00954892
   0.33484960  0.24006635  0.17612006
   0.50325217  0.00112931  0.17945597
   0.51088415  0.27811002  0.00937666
   0.33487436  0.75985075  0.18012612
   0.47548805  0.49992981  0.17435572
   0.50765460  0.72021237  0.00967939
   0.83679614  0.00165649  0.17378504
   0.82892675  0.25113539  0.00787961
   0.66823121  0.70239310  0.17792054
   0.85195964  0.50182346  0.16617279
   0.82959044  0.75195456  0.00829124
   0.00409705  0.25141285  0.51527945
   0.17678355  0.00143471  0.50650579
   0.16595388  0.29600659  0.34264417
   0.00370539  0.75251274  0.51513321
   0.15871315  0.50128915  0.53233910
   0.16542240  0.70609303  0.34303245
   0.33473722  0.28055312  0.50186748
   0.48546507  0.00185814  0.51008748
   0.50670207  0.28520222  0.34337898
   0.33463497  0.72351913  0.50396995
   0.50662468  0.50141818  0.52622493
   0.50652263  0.71694301  0.34372376
   0.66804837  0.27345773  0.51902609
   0.84097261  0.00237049  0.52244659
   0.83132425  0.27391741  0.34413956
   0.66841256  0.73041888  0.51810406
   0.84596131  0.50251966  0.49956071
   0.83169706  0.73100413  0.34366305
   0.00096284  0.27966392  0.83965628
   0.19980320  0.00098286  0.85195080
   0.18993553  0.23660150  0.67755613
   0.00258172  0.72050436  0.84110092
   0.16750891  0.49728065  0.82305434
   0.18647495  0.76375910  0.67807946
   0.33604169  0.27815148  0.86200498
   0.47579523  0.00144393  0.84610221
   0.47482790  0.24590848  0.67684925
   0.33542175  0.71198054  0.85315696
   0.51877123  0.49958595  0.82944087
   0.47866857  0.75676086  0.67671000
   0.66607647  0.23770105  0.82387490
   0.83433927  0.00118486  0.83751839
   0.83779201  0.29802844  0.67602155
   0.66513163  0.76267386  0.82740460
   0.81778402  0.50146976  0.85903154
   0.83747442  0.70838383  0.67644580
   0.66872992  0.30121949  0.17841900
   0.99990943  0.50235559  0.00991128
   0.33478840  0.50293419  0.01265514
   0.67104402  0.50285340  0.01093939
   0.99629008  0.50097034  0.34135955
   0.33852328  0.50165434  0.33680676
   0.66899940  0.50147873  0.35000622
   0.00127795  0.50424228  0.67122156
   0.33408848  0.00162037  0.66652866
   0.33529551  0.50399696  0.67341389
   0.67055101  0.50433830  0.67655015
   0.16833260  0.24415825  0.17197155
   0.16836311  0.75909660  0.17280351
   0.50638797  0.24072400  0.17367738
   0.50547992  0.76356044  0.17521614
   0.83111191  0.24315598  0.18020419
   0.83088037  0.76001660  0.17976903
   0.16934397  0.75770077  0.50107336
   0.50413012  0.24147041  0.50405749
   0.50462808  0.76360203  0.50506892
   0.83250249  0.23907617  0.51110466
   0.83271550  0.76617012  0.50984985
   0.16604711  0.24922981  0.84045528
   0.16916795  0.76569466  0.84326012
   0.50460265  0.24939908  0.84197176
   0.50202625  0.76248201  0.84527703
   0.83822868  0.24315028  0.83951922
   0.83940011  0.76059562  0.83972995
   0.16953299  0.24657225  0.50061170
   0.33775754  0.04823653  0.94640330
   0.00207315  0.00167157  0.20852033
   0.33430926  0.00119748  0.22792953
   0.82035798  0.00184100  0.00758893
   0.00720577  0.00228625  0.54742156
   0.67225899  1.00001531  0.77933074
Direct configuration=     7
   0.00077769  0.25799834  0.18213220
   0.16571712  0.00089986  0.18676601
   0.16121229  0.28028412  0.00977201
   0.00125747  0.74449689  0.18094037
   0.17806617  0.50051092  0.17143114
   0.16379018  0.71760658  0.00956293
   0.33482873  0.24009959  0.17611039
   0.50324947  0.00116262  0.17944128
   0.51087755  0.27815504  0.00934432
   0.33485772  0.75981719  0.18012409
   0.47545340  0.49992519  0.17436057
   0.50764262  0.72015361  0.00965020
   0.83681375  0.00166235  0.17378465
   0.82893007  0.25116622  0.00788287
   0.66823653  0.70234808  0.17791264
   0.85197748  0.50181703  0.16617041
   0.82959642  0.75191932  0.00829247
   0.00411369  0.25144481  0.51528166
   0.17677944  0.00144016  0.50649650
   0.16596571  0.29604597  0.34263849
   0.00371768  0.75248038  0.51513884
   0.15870891  0.50129406  0.53234776
   0.16542650  0.70604852  0.34304065
   0.33472605  0.28060598  0.50186095
   0.48545377  0.00186370  0.51009416
   0.50668758  0.28523743  0.34338398
   0.33462668  0.72348167  0.50397361
   0.50660413  0.50142193  0.52623357
   0.50650690  0.71689971  0.34373818
   0.66804473  0.27349987  0.51903000
   0.84097415  0.00239122  0.52244041
   0.83133554  0.27394967  0.34415151
   0.66840547  0.73038460  0.51811668
   0.84598704  0.50251658  0.49956440
   0.83170805  0.73096522  0.34368062
   0.00097658  0.27969917  0.83965006
   0.19981665  0.00099231  0.85194894
   0.18995847  0.23661855  0.67751535
   0.00258492  0.72047898  0.84109306
   0.16753097  0.49730039  0.82302523
   0.18649839  0.76375218  0.67803710
   0.33605901  0.27819983  0.86200625
   0.47580847  0.00145921  0.84609070
   0.47480436  0.24593552  0.67684352
   0.33544168  0.71193087  0.85315534
   0.51875692  0.49958884  0.82940586
   0.47864708  0.75673515  0.67670985
   0.66605501  0.23773167  0.82386043
   0.83431800  0.00119772  0.83752331
   0.83778864  0.29808493  0.67600716
   0.66511930  0.76264552  0.82739900
   0.81777423  0.50146800  0.85903361
   0.83747091  0.70832270  0.67642859
   0.66872579  0.30124962  0.17841366
   0.99990332  0.50236267  0.00991388
   0.33478358  0.50293017  0.01266244
   0.67104533  0.50285016  0.01093521
   0.99629057  0.50096986  0.34135877
   0.33852560  0.50165627  0.33680689
   0.66899838  0.50147886  0.35000359
   0.00127587  0.50424173  0.67121580
   0.33409395  0.00161586  0.66652363
   0.33528885  0.50399504  0.67341214
   0.67055284  0.50433782  0.67654686
   0.16832963  0.24413528  0.17196409
   0.16836336  0.75911218  0.17279420
   0.50639619  0.24070190  0.17368484
   0.50548842  0.76357715  0.17521551
   0.83110504  0.24313754  0.18019668
   0.83087474  0.76002731  0.17976566
   0.16934000  0.75771004  0.50107385
   0.50414123  0.24145218  0.50405638
   0.50463785  0.76361031  0.50506113
   0.83250227  0.23906715  0.51109908
   0.83270961  0.76620022  0.50984327
   0.16603585  0.24919381  0.84045474
   0.16915495  0.76570985  0.84326223
   0.50460098  0.24939004  0.84197337
   0.50202849  0.76248542  0.84528278
   0.83823793  0.24313506  0.83951802
   0.83940997  0.76059878  0.83972917
   0.16952933  0.24656233  0.50061484
   0.33778360  0.04824096  0.94642059
   0.00206728  0.00167040  0.20854867
   0.33429696  0.00121519  0.22793306
   0.82037369  0.00184387  0.00758362
   0.00721244  0.00228968  0.54743077
   0.67223275  1.00002627  0.77936412
Direct configuration=     8
   0.00079862  0.25803077  0.18214299
   0.16571531  0.00092165  0.18676788
   0.16122111  0.28032549  0.00978374
   0.00126828  0.74444574  0.18094565
   0.17808407  0.50049853  0.17143700
   0.16380003  0.71754646  0.00957444
   0.33481088  0.24013089  0.17610050
   0.50324710  0.00119265  0.17942677
   0.51087149  0.27819910  0.00931593
   0.33484392  0.75978580  0.18012173
   0.47541986  0.49992209  0.17436497
   0.50763116  0.72009620  0.00962537
   0.83683103  0.00166733  0.17378438
   0.82893341  0.25119575  0.00788590
   0.66824142  0.70230502  0.17790485
   0.85199471  0.50181070  0.16616743
   0.82960265  0.75188614  0.00829355
   0.00412768  0.25147583  0.51528389
   0.17677550  0.00144531  0.50648675
   0.16597688  0.29608418  0.34263295
   0.00372731  0.75244905  0.51514448
   0.15870412  0.50129934  0.53235695
   0.16543030  0.70600494  0.34304745
   0.33471626  0.28065739  0.50185391
   0.48544241  0.00186923  0.51010024
   0.50667390  0.28527081  0.34338773
   0.33461974  0.72344535  0.50397640
   0.50658435  0.50142586  0.52624198
   0.50649232  0.71685784  0.34374943
   0.66804210  0.27354168  0.51903321
   0.84097550  0.00241099  0.52243444
   0.83134639  0.27398021  0.34416133
   0.66839964  0.73035159  0.51812867
   0.84601253  0.50251367  0.49956821
   0.83171865  0.73092749  0.34369606
   0.00098910  0.27973281  0.83964382
   0.19982954  0.00100106  0.85194711
   0.18998057  0.23663434  0.67747861
   0.00258766  0.72045554  0.84108560
   0.16755244  0.49731901  0.82299660
   0.18652107  0.76374687  0.67799942
   0.33607405  0.27824740  0.86200773
   0.47582162  0.00147352  0.84607941
   0.47478088  0.24596081  0.67683749
   0.33545929  0.71188325  0.85315400
   0.51874318  0.49959187  0.82937066
   0.47862576  0.75671061  0.67670954
   0.66603685  0.23776178  0.82384600
   0.83429674  0.00121011  0.83752863
   0.83778520  0.29813943  0.67599529
   0.66510923  0.76261770  0.82739361
   0.81776504  0.50146679  0.85903604
   0.83746703  0.70826415  0.67641333
   0.66872246  0.30127877  0.17840863
   0.99989740  0.50236967  0.00991659
   0.33477884  0.50292605  0.01266975
   0.67104650  0.50284687  0.01093092
   0.99629122  0.50096936  0.34135810
   0.33852767  0.50165812  0.33680715
   0.66899742  0.50147898  0.35000099
   0.00127398  0.50424118  0.67120977
   0.33409943  0.00161144  0.66651860
   0.33528220  0.50399307  0.67341043
   0.67055453  0.50433733  0.67654347
   0.16832681  0.24411377  0.17195716
   0.16836371  0.75912668  0.17278564
   0.50640366  0.24068150  0.17369186
   0.50549645  0.76359264  0.17521479
   0.83109862  0.24312029  0.18018939
   0.83086966  0.76003709  0.17976254
   0.16933631  0.75771862  0.50107428
   0.50415176  0.24143475  0.50405582
   0.50464702  0.76361763  0.50505417
   0.83250233  0.23905960  0.51109378
   0.83270429  0.76622894  0.50983699
   0.16602552  0.24915892  0.84045380
   0.16914295  0.76572415  0.84326375
   0.50459888  0.24938196  0.84197463
   0.50203045  0.76248835  0.84528786
   0.83824662  0.24312105  0.83951592
   0.83941937  0.76060076  0.83972758
   0.16952605  0.24655323  0.50061775
   0.33780995  0.04824554  0.94643706
   0.00206252  0.00166911  0.20857762
   0.33428416  0.00123404  0.22793722
   0.82038973  0.00184740  0.00757835
   0.00721959  0.00229342  0.54744025
   0.67220570  1.00003693  0.77939827
Direct configuration=     9
   0.00081532  0.25806178  0.18215367
   0.16571329  0.00094011  0.18676959
   0.16122914  0.28036547  0.00979186
   0.00127647  0.74439659  0.18095069
   0.17810130  0.50048829  0.17144268
   0.16380938  0.71748856  0.00958300
   0.33479658  0.24015971  0.17609036
   0.50324511  0.00121878  0.17941245
   0.51086619  0.27824198  0.00929207
   0.33483342  0.75975718  0.18011902
   0.47538779  0.49992074  0.17436889
   0.50762045  0.72004037  0.00960553
   0.83684791  0.00167120  0.17378419
   0.82893678  0.25122366  0.00788867
   0.66824577  0.70226419  0.17789719
   0.85201116  0.50180459  0.16616374
   0.82960913  0.75185533  0.00829450
   0.00413861  0.25150555  0.51528618
   0.17677174  0.00145009  0.50647667
   0.16598730  0.29612094  0.34262767
   0.00373387  0.75241922  0.51515020
   0.15869860  0.50130502  0.53236677
   0.16543372  0.70596260  0.34305267
   0.33470814  0.28070699  0.50184629
   0.48543103  0.00187462  0.51010571
   0.50666132  0.28530204  0.34339001
   0.33461442  0.72341056  0.50397820
   0.50656564  0.50143003  0.52625000
   0.50647919  0.71681778  0.34375708
   0.66804057  0.27358300  0.51903559
   0.84097665  0.00242952  0.52242868
   0.83135660  0.27400879  0.34416869
   0.66839523  0.73032006  0.51813987
   0.84603761  0.50251100  0.49957200
   0.83172865  0.73089121  0.34370903
   0.00100016  0.27976473  0.83963765
   0.19984183  0.00100902  0.85194532
   0.19000176  0.23664845  0.67744653
   0.00258986  0.72043427  0.84107867
   0.16757304  0.49733631  0.82296850
   0.18654292  0.76374364  0.67796715
   0.33608638  0.27829369  0.86200944
   0.47583464  0.00148665  0.84606832
   0.47475753  0.24598387  0.67683100
   0.33547412  0.71183829  0.85315303
   0.51873030  0.49959516  0.82933538
   0.47860469  0.75668773  0.67670898
   0.66602264  0.23779112  0.82383166
   0.83427561  0.00122185  0.83753441
   0.83778174  0.29819151  0.67598629
   0.66510186  0.76259070  0.82738849
   0.81775655  0.50146624  0.85903903
   0.83746280  0.70820867  0.67640037
   0.66872000  0.30130676  0.17840394
   0.99989167  0.50237655  0.00991944
   0.33477416  0.50292181  0.01267708
   0.67104753  0.50284348  0.01092646
   0.99629204  0.50096881  0.34135753
   0.33852946  0.50165985  0.33680754
   0.66899653  0.50147906  0.34999845
   0.00127229  0.50424061  0.67120346
   0.33410492  0.00160711  0.66651355
   0.33527557  0.50399104  0.67340878
   0.67055603  0.50433682  0.67654001
   0.16832418  0.24409401  0.17195085
   0.16836419  0.75913985  0.17277794
   0.50641027  0.24066314  0.17369836
   0.50550393  0.76360666  0.17521396
   0.83109273  0.24310448  0.18018239
   0.83086524  0.76004574  0.17975970
   0.16933297  0.75772635  0.50107460
   0.50416158  0.24141830  0.50405589
   0.50465545  0.76362384  0.50504816