unknown system                          
           1
    11.636000    0.000000    0.000000
     0.000000    7.905000    0.000000
     0.000000    0.000000   11.636000
   O    La   Ti   Li
    54    10    18     6
Direct configuration=     1
   0.00217007  0.26008666  0.19241457
   0.16485915  0.00053682  0.19413590
   0.15906000  0.27620030  0.01439517
   0.00263448  0.74166082  0.19070898
   0.18026114  0.50029093  0.17556798
   0.16207501  0.72134886  0.01421696
   0.33496461  0.23937891  0.18105643
   0.50332418  0.00073068  0.18038167
   0.50819763  0.28701547  0.01514671
   0.33506113  0.76038566  0.18476113
   0.47667270  0.50019091  0.18337306
   0.50536838  0.71224052  0.01503831
   0.84303713  0.00142365  0.17928596
   0.84160218  0.25162104  0.01412982
   0.66929326  0.70513005  0.17906039
   0.85110026  0.50163596  0.17185182
   0.84143900  0.75162688  0.01423081
   0.00423406  0.24940836  0.52336176
   0.17698544  0.00146087  0.51222431
   0.16724424  0.29635972  0.34878737
   0.00391179  0.75463325  0.52262343
   0.15910131  0.50130615  0.53811693
   0.16673553  0.70537741  0.34891513
   0.33591320  0.27844139  0.50774657
   0.48598826  0.00166425  0.51290349
   0.50808171  0.28255098  0.34744339
   0.33570394  0.72556779  0.50938803
   0.50426212  0.50143909  0.53183293
   0.50816478  0.71936456  0.34768864
   0.66844608  0.27897161  0.52140763
   0.84116011  0.00221734  0.52271089
   0.83115566  0.27423893  0.34860362
   0.66877903  0.72529408  0.52074730
   0.85006928  0.50248384  0.50588254
   0.83138202  0.73017769  0.34799593
   0.00198407  0.27432353  0.83892719
   0.19995422  0.00092019  0.85556738
   0.19334350  0.23777940  0.68269725
   0.00362314  0.72495519  0.84135410
   0.16843037  0.49686080  0.83049588
   0.18980846  0.76259741  0.68310942
   0.33692898  0.27439990  0.86771679
   0.48410558  0.00090437  0.85808731
   0.47878632  0.24202349  0.68234322
   0.33589371  0.71526603  0.85908627
   0.51593591  0.49992834  0.82963747
   0.48205304  0.75966484  0.68232593
   0.66746806  0.24616846  0.84377529
   0.83397825  0.00126253  0.84837699
   0.83357946  0.29607363  0.68103024
   0.66691724  0.75443803  0.84536358
   0.82493236  0.50126940  0.86479511
   0.83406210  0.70994155  0.68139734
   0.66982339  0.29778920  0.17984387
   0.99787272  0.50254845  0.01244337
   0.33422601  0.50226308  0.01840779
   0.67051099  0.50201526  0.01149210
   0.99621488  0.50092684  0.34408653
   0.33836091  0.50141296  0.34166759
   0.66934720  0.50126433  0.34997558
   0.99945250  0.50396415  0.67455303
   0.33429895  0.00145830  0.66873189
   0.33446466  0.50409315  0.67698034
   0.66883121  0.50440395  0.67736732
   0.16731605  0.24375815  0.17639632
   0.16760467  0.75910994  0.17719514
   0.50544641  0.24053239  0.17659139
   0.50483158  0.76273617  0.17768166
   0.83141065  0.24269251  0.18079852
   0.83111744  0.76044687  0.18092388
   0.16885162  0.75764155  0.50603235
   0.50462651  0.24076350  0.50681128
   0.50490412  0.76368075  0.50761783
   0.83213158  0.23870950  0.51188744
   0.83229219  0.76607834  0.51122675
   0.16495708  0.24849196  0.84479378
   0.16760092  0.76638752  0.84748724
   0.50177284  0.25111949  0.84510251
   0.49951359  0.75878484  0.84802367
   0.83689331  0.24323345  0.84036770
   0.83754731  0.76080508  0.84121331
   0.16916147  0.24700972  0.50583072
   0.33878438  0.04314005  0.95023068
   0.00306827  0.00142695  0.23428331
   0.33438553  0.00100494  0.23260377
   0.86912074  0.00204796  0.01276423
   0.00647883  0.00229839  0.55754496
   0.66372001  0.00090909  0.85731526
Direct configuration=     2
   0.00217035  0.26008662  0.19241970
   0.16485619  0.00053698  0.19414104
   0.15905981  0.27620163  0.01440097
   0.00263349  0.74165745  0.19071411
   0.18026242  0.50028878  0.17557366
   0.16207578  0.72134743  0.01422324
   0.33496355  0.23937639  0.18106235
   0.50332402  0.00073117  0.18038791
   0.50819548  0.28701088  0.01515260
   0.33505909  0.76038125  0.18476889
   0.47667213  0.50018888  0.18337639
   0.50536543  0.71224011  0.01504399
   0.84303968  0.00142289  0.17928869
   0.84160251  0.25162187  0.01413444
   0.66929286  0.70513156  0.17906243
   0.85109850  0.50163414  0.17185472
   0.84143950  0.75162624  0.01423623
   0.00422989  0.24940600  0.52336865
   0.17698542  0.00146071  0.51223112
   0.16724205  0.29635977  0.34879325
   0.00390931  0.75463231  0.52263015
   0.15910128  0.50130623  0.53812164
   0.16673325  0.70537652  0.34891997
   0.33590902  0.27843786  0.50775364
   0.48598774  0.00166279  0.51290799
   0.50808022  0.28255234  0.34744894
   0.33570314  0.72556734  0.50939393
   0.50425628  0.50143646  0.53184101
   0.50816400  0.71935764  0.34769363
   0.66844489  0.27897352  0.52141070
   0.84115861  0.00221619  0.52271422
   0.83115729  0.27423784  0.34860557
   0.66877846  0.72528628  0.52075083
   0.85007124  0.50248377  0.50588627
   0.83138192  0.73017554  0.34799771
   0.00198150  0.27432504  0.83892908
   0.19995183  0.00091784  0.85557335
   0.19334267  0.23778103  0.68270525
   0.00361987  0.72495346  0.84135778
   0.16842798  0.49685876  0.83050336
   0.18980695  0.76259601  0.68311492
   0.33692935  0.27440641  0.86772117
   0.48410464  0.00090464  0.85809735
   0.47878612  0.24202082  0.68234896
   0.33589286  0.71526170  0.85909047
   0.51593524  0.49992778  0.82964422
   0.48205420  0.75966474  0.68233385
   0.66746651  0.24616788  0.84378201
   0.83397466  0.00126132  0.84838319
   0.83357719  0.29607207  0.68103509
   0.66691658  0.75443906  0.84537601
   0.82492937  0.50127067  0.86479892
   0.83405854  0.70994229  0.68140179
   0.66982257  0.29778420  0.17984933
   0.99787031  0.50254983  0.01244575
   0.33422433  0.50226204  0.01841361
   0.67050887  0.50201476  0.01149619
   0.99621302  0.50092507  0.34409055
   0.33835896  0.50141356  0.34167225
   0.66934619  0.50126274  0.34997908
   0.99945063  0.50396446  0.67455764
   0.33429697  0.00145695  0.66873655
   0.33446326  0.50409354  0.67698603
   0.66882949  0.50440360  0.67737098
   0.16731551  0.24375806  0.17640070
   0.16760432  0.75910846  0.17720158
   0.50544464  0.24053291  0.17659854
   0.50483098  0.76273586  0.17768486
   0.83140891  0.24269044  0.18079844
   0.83111692  0.76044592  0.18092615
   0.16884969  0.75764188  0.50603625
   0.50462468  0.24076223  0.50681857
   0.50490202  0.76367960  0.50762105
   0.83212961  0.23870822  0.51188938
   0.83229061  0.76607783  0.51123024
   0.16495304  0.24849068  0.84480096
   0.16759854  0.76638740  0.84749223
   0.50177191  0.25112040  0.84510670
   0.49951235  0.75878830  0.84802893
   0.83689029  0.24323145  0.84036990
   0.83754271  0.76080671  0.84121781
   0.16915705  0.24700949  0.50583779
   0.33878096  0.04314681  0.95024040
   0.00306751  0.00142320  0.23429061
   0.33438485  0.00100529  0.23260968
   0.86913368  0.00204164  0.01276670
   0.00647395  0.00229281  0.55755243
   0.66371630  0.00090941  0.85735112
Direct configuration=     3
   0.00217087  0.26008679  0.19242493
   0.16485308  0.00053707  0.19414633
   0.15905964  0.27620306  0.01440687
   0.00263244  0.74165386  0.19071943
   0.18026374  0.50028669  0.17557932
   0.16207660  0.72134570  0.01422972
   0.33496243  0.23937400  0.18106827
   0.50332386  0.00073174  0.18039424
   0.50819342  0.28700652  0.01515859
   0.33505706  0.76037674  0.18477664
   0.47667157  0.50018678  0.18337972
   0.50536260  0.71223934  0.01504975
   0.84304222  0.00142210  0.17929147
   0.84160276  0.25162271  0.01413921
   0.66929245  0.70513285  0.17906445
   0.85109671  0.50163235  0.17185757
   0.84143996  0.75162533  0.01424177
   0.00422567  0.24940376  0.52337551
   0.17698554  0.00146056  0.51223795
   0.16723972  0.29635976  0.34879899
   0.00390699  0.75463123  0.52263686
   0.15910117  0.50130636  0.53812637
   0.16673092  0.70537552  0.34892468
   0.33590473  0.27843429  0.50776063
   0.48598712  0.00166142  0.51291265
   0.50807877  0.28255387  0.34745436
   0.33570231  0.72556676  0.50939988
   0.50425036  0.50143385  0.53184922
   0.50816325  0.71935050  0.34769841
   0.66844366  0.27897570  0.52141383
   0.84115708  0.00221508  0.52271764
   0.83115897  0.27423690  0.34860746
   0.66877798  0.72527819  0.52075445
   0.85007326  0.50248372  0.50588986
   0.83138187  0.73017322  0.34799946
   0.00197881  0.27432671  0.83893110
   0.19994936  0.00091525  0.85557937
   0.19334186  0.23778269  0.68271318
   0.00361649  0.72495150  0.84136147
   0.16842568  0.49685681  0.83051095
   0.18980548  0.76259445  0.68312051
   0.33692962  0.27441317  0.86772568
   0.48410369  0.00090501  0.85810744
   0.47878588  0.24201815  0.68235484
   0.33589200  0.71525718  0.85909475
   0.51593467  0.49992701  0.82965091
   0.48205530  0.75966455  0.68234167
   0.66746488  0.24616743  0.84378887
   0.83397095  0.00126005  0.84838950
   0.83357488  0.29607071  0.68104002
   0.66691594  0.75443998  0.84538851
   0.82492605  0.50127207  0.86480303
   0.83405491  0.70994291  0.68140628
   0.66982157  0.29777941  0.17985481
   0.99786789  0.50255118  0.01244817
   0.33422264  0.50226097  0.01841939
   0.67050677  0.50201422  0.01150022
   0.99621114  0.50092331  0.34409454
   0.33835700  0.50141414  0.34167687
   0.66934522  0.50126116  0.34998254
   0.99944880  0.50396480  0.67456220
   0.33429499  0.00145564  0.66874126
   0.33446184  0.50409391  0.67699170
   0.66882777  0.50440325  0.67737463
   0.16731505  0.24375801  0.17640497
   0.16760397  0.75910692  0.17720802
   0.50544276  0.24053355  0.17660562
   0.50483032  0.76273554  0.17768806
   0.83140720  0.24268838  0.18079840
   0.83111638  0.76044493  0.18092838
   0.16884783  0.75764204  0.50604015
   0.50462281  0.24076098  0.50682586
   0.50489993  0.76367834  0.50762422
   0.83212763  0.23870702  0.51189141
   0.83228910  0.76607716  0.51123378
   0.16494901  0.24848951  0.84480805
   0.16759624  0.76638721  0.84749719
   0.50177106  0.25112136  0.84511083
   0.49951099  0.75879159  0.84803415
   0.83688724  0.24322941  0.84037212
   0.83753815  0.76080825  0.84122223
   0.16915270  0.24700925  0.50584481
   0.33877760  0.04315320  0.95025012
   0.00306698  0.00141956  0.23429791
   0.33438408  0.00100551  0.23261561
   0.86914665  0.00203533  0.01276922
   0.00646928  0.00228712  0.55755992
   0.66371274  0.00091004  0.85738702
Direct configuration=     4
   0.00217164  0.26008687  0.19243023
   0.16484986  0.00053703  0.19415159
   0.15905949  0.27620423  0.01441284
   0.00263134  0.74165039  0.19072487
   0.18026509  0.50028472  0.17558482
   0.16207742  0.72134421  0.01423637
   0.33496124  0.23937143  0.18107417
   0.50332380  0.00073230  0.18040058
   0.50819145  0.28700212  0.01516466
   0.33505504  0.76037252  0.18478431
   0.47667121  0.50018472  0.18338304
   0.50535988  0.71223867  0.01505553
   0.84304462  0.00142130  0.17929431
   0.84160293  0.25162334  0.01414404
   0.66929203  0.70513433  0.17906644
   0.85109477  0.50163063  0.17186035
   0.84144040  0.75162432  0.01424735
   0.00422145  0.24940137  0.52338237
   0.17698574  0.00146038  0.51224474
   0.16723723  0.29635935  0.34880463
   0.00390483  0.75463027  0.52264351
   0.15910090  0.50130659  0.53813109
   0.16672857  0.70537491  0.34892928
   0.33590035  0.27843043  0.50776753
   0.48598660  0.00166015  0.51291730
   0.50807747  0.28255523  0.34745968
   0.33570147  0.72556640  0.50940580
   0.50424453  0.50143130  0.53185739
   0.50816263  0.71934358  0.34770298
   0.66844237  0.27897777  0.52141692
   0.84115540  0.00221400  0.52272103
   0.83116058  0.27423582  0.34860923
   0.66877756  0.72527032  0.52075807
   0.85007519  0.50248370  0.50589330
   0.83138176  0.73017107  0.34800117
   0.00197609  0.27432811  0.83893321
   0.19994657  0.00091235  0.85558540
   0.19334088  0.23778413  0.68272118
   0.00361311  0.72494983  0.84136511
   0.16842331  0.49685503  0.83051867
   0.18980389  0.76259296  0.68312627
   0.33692970  0.27441974  0.86773030
   0.48410277  0.00090539  0.85811759
   0.47878572  0.24201523  0.68236093
   0.33589108  0.71525305  0.85909914
   0.51593423  0.49992608  0.82965760
   0.48205648  0.75966449  0.68234943
   0.66746321  0.24616687  0.84379583
   0.83396724  0.00125878  0.84839577
   0.83357255  0.29606919  0.68104514
   0.66691532  0.75444110  0.84540105
   0.82492261  0.50127358  0.86480727
   0.83405127  0.70994378  0.68141088
   0.66982044  0.29777449  0.17986032
   0.99786549  0.50255261  0.01245047
   0.33422095  0.50225997  0.01842513
   0.67050467  0.50201372  0.01150427
   0.99620920  0.50092164  0.34409860
   0.33835512  0.50141476  0.34168155
   0.66934423  0.50125964  0.34998603
   0.99944694  0.50396522  0.67456685
   0.33429301  0.00145434  0.66874601
   0.33446042  0.50409427  0.67699738
   0.66882610  0.50440292  0.67737820
   0.16731467  0.24375770  0.17640913
   0.16760364  0.75910556  0.17721441
   0.50544087  0.24053405  0.17661269
   0.50482965  0.76273543  0.17769131
   0.83140543  0.24268617  0.18079845
   0.83111576  0.76044404  0.18093064
   0.16884603  0.75764216  0.50604409
   0.50462099  0.24075956  0.50683314
   0.50489792  0.76367718  0.50762730
   0.83212557  0.23870569  0.51189357
   0.83228757  0.76607652  0.51123740
   0.16494494  0.24848817  0.84481507
   0.16759394  0.76638714  0.84750219
   0.50177029  0.25112216  0.84511492
   0.49950951  0.75879489  0.84803937
   0.83688423  0.24322718  0.84037430
   0.83753372  0.76080982  0.84122650
   0.16914843  0.24700882  0.50585183
   0.33877433  0.04315915  0.95025992
   0.00306661  0.00141601  0.23430522
   0.33438324  0.00100559  0.23262159
   0.86915966  0.00202902  0.01277176
   0.00646485  0.00228130  0.55756753
   0.66370937  0.00091098  0.85742296
Direct configuration=     5
   0.00217259  0.26008703  0.19243555
   0.16484655  0.00053673  0.19415693
   0.15905938  0.27620530  0.01441868
   0.00263020  0.74164687  0.19073041
   0.18026641  0.50028292  0.17559030
   0.16207826  0.72134268  0.01424298
   0.33496012  0.23936890  0.18108004
   0.50332369  0.00073272  0.18040693
   0.50818956  0.28699777  0.01517089
   0.33505317  0.76036841  0.18479191
   0.47667102  0.50018271  0.18338635
   0.50535728  0.71223790  0.01506145
   0.84304698  0.00142040  0.17929715
   0.84160302  0.25162386  0.01414888
   0.66929148  0.70513568  0.17906839
   0.85109271  0.50162901  0.17186309
   0.84144081  0.75162314  0.01425292
   0.00421709  0.24939897  0.52338919
   0.17698602  0.00146013  0.51225153
   0.16723461  0.29635869  0.34881026
   0.00390274  0.75462931  0.52265007
   0.15910054  0.50130692  0.53813576
   0.16672621  0.70537443  0.34893381
   0.33589605  0.27842634  0.50777436
   0.48598599  0.00165893  0.51292204
   0.50807625  0.28255660  0.34746496
   0.33570071  0.72556615  0.50941172
   0.50423873  0.50142884  0.53186556
   0.50816208  0.71933669  0.34770738
   0.66844103  0.27897999  0.52142000
   0.84115373  0.00221291  0.52272443
   0.83116217  0.27423475  0.34861112
   0.66877717  0.72526241  0.52076170
   0.85007704  0.50248373  0.50589665
   0.83138164  0.73016893  0.34800300
   0.00197326  0.27432950  0.83893544
   0.19994371  0.00090926  0.85559142
   0.19333982  0.23778550  0.68272920
   0.00360974  0.72494814  0.84136869
   0.16842097  0.49685329  0.83052655
   0.18980223  0.76259140  0.68313225
   0.33692955  0.27442626  0.86773497
   0.48410181  0.00090580  0.85812777
   0.47878559  0.24201220  0.68236704
   0.33589004  0.71524909  0.85910355
   0.51593387  0.49992497  0.82966431
   0.48205769  0.75966443  0.68235698
   0.66746160  0.24616633  0.84380289
   0.83396347  0.00125744  0.84840210
   0.83357019  0.29606773  0.68105027
   0.66691477  0.75444225  0.84541362
   0.82491897  0.50127521  0.86481164
   0.83404760  0.70994469  0.68141548
   0.66981907  0.29776972  0.17986584
   0.99786308  0.50255399  0.01245285
   0.33421923  0.50225893  0.01843085
   0.67050259  0.50201318  0.01150828
   0.99620725  0.50091996  0.34410263
   0.33835320  0.50141535  0.34168619
   0.66934328  0.50125813  0.34998948
   0.99944512  0.50396566  0.67457146
   0.33429103  0.00145308  0.66875081
   0.33445898  0.50409459  0.67700307
   0.66882443  0.50440259  0.67738178
   0.16731433  0.24375754  0.17641324
   0.16760327  0.75910406  0.17722083
   0.50543885  0.24053473  0.17661963
   0.50482889  0.76273522  0.17769452
   0.83140374  0.24268403  0.18079852
   0.83111518  0.76044307  0.18093284
   0.16884429  0.75764203  0.50604803
   0.50461907  0.24075825  0.50684043
   0.50489587  0.76367583  0.50763035
   0.83212355  0.23870453  0.51189579
   0.83228616  0.76607565  0.51124106
   0.16494092  0.24848704  0.84482204
   0.16759174  0.76638689  0.84750719
   0.50176961  0.25112308  0.84511899
   0.49950792  0.75879797  0.84804457
   0.83688114  0.24322496  0.84037656
   0.83752931  0.76081125  0.84123075
   0.16914428  0.24700849  0.50585875
   0.33877106  0.04316479  0.95026954
   0.00306650  0.00141258  0.23431243
   0.33438235  0.00100551  0.23262746
   0.86917264  0.00202280  0.01277437
   0.00646056  0.00227543  0.55757508
   0.66370623  0.00091225  0.85745896
Direct configuration=     6
   0.00217368  0.26008715  0.19244094
   0.16484316  0.00053620  0.19416231
   0.15905928  0.27620617  0.01442440
   0.00262900  0.74164343  0.19073606
   0.18026775  0.50028134  0.17559566
   0.16207908  0.72134132  0.01424964
   0.33495907  0.23936623  0.18108589
   0.50332360  0.00073304  0.18041332
   0.50818775  0.28699346  0.01517725
   0.33505146  0.76036458  0.18479947
   0.47667105  0.50018078  0.18338969
   0.50535478  0.71223717  0.01506748
   0.84304926  0.00141940  0.17930000
   0.84160303  0.25162416  0.01415367
   0.66929079  0.70513711  0.17907034
   0.85109047  0.50162753  0.17186581
   0.84144123  0.75162189  0.01425842
   0.00421263  0.24939644  0.52339602
   0.17698637  0.00145981  0.51225836
   0.16723184  0.29635770  0.34881579
   0.00390071  0.75462848  0.52265658
   0.15910004  0.50130738  0.53814041
   0.16672384  0.70537426  0.34893817
   0.33589183  0.27842195  0.50778114
   0.48598542  0.00165778  0.51292682
   0.50807514  0.28255789  0.34747018
   0.33570003  0.72556613  0.50941764
   0.50423304  0.50142649  0.53187368
   0.50816164  0.71932997  0.34771155
   0.66843966  0.27898221  0.52142305
   0.84115199  0.00221183  0.52272783
   0.83116367  0.27423361  0.34861312
   0.66877682  0.72525463  0.52076532
   0.85007872  0.50248379  0.50589992
   0.83138147  0.73016693  0.34800497
   0.00197038  0.27433071  0.83893777
   0.19994070  0.00090606  0.85559743
   0.19333865  0.23778664  0.68273719
   0.00360637  0.72494665  0.84137224
   0.16841855  0.49685180  0.83053456
   0.18980050  0.76258992  0.68313836
   0.33692906  0.27443251  0.86773970
   0.48410081  0.00090627  0.85813796
   0.47878550  0.24200893  0.68237310
   0.33588883  0.71524549  0.85910799
   0.51593363  0.49992381  0.82967097
   0.48205893  0.75966451  0.68236427
   0.66746011  0.24616573  0.84381004
   0.83395967  0.00125611  0.84840846
   0.83356778  0.29606624  0.68105539
   0.66691433  0.75444353  0.84542619
   0.82491521  0.50127693  0.86481609
   0.83404390  0.70994577  0.68142004
   0.66981748  0.29776497  0.17987140
   0.99786069  0.50255545  0.01245511
   0.33421750  0.50225796  0.01843650
   0.67050049  0.50201267  0.01151231
   0.99620523  0.50091836  0.34410672
   0.33835137  0.50141597  0.34169088
   0.66934232  0.50125668  0.34999294
   0.99944327  0.50396619  0.67457616
   0.33428904  0.00145185  0.66875566
   0.33445753  0.50409491  0.67700876
   0.66882282  0.50440228  0.67738527
   0.16731404  0.24375722  0.17641728
   0.16760289  0.75910266  0.17722724
   0.50543680  0.24053536  0.17662651
   0.50482811  0.76273512  0.17769776
   0.83140206  0.24268180  0.18079869
   0.83111455  0.76044215  0.18093506
   0.16884263  0.75764180  0.50605200
   0.50461714  0.24075687  0.50684771
   0.50489386  0.76367448  0.50763336
   0.83212148  0.23870335  0.51189811
   0.83228478  0.76607470  0.51124477
   0.16493691  0.24848587  0.84482896
   0.16758959  0.76638661  0.84751223
   0.50176900  0.25112391  0.84512307
   0.49950620  0.75880097  0.84804978
   0.83687804  0.24322263  0.84037884
   0.83752504  0.76081263  0.84123491
   0.16914023  0.24700803  0.50586562
   0.33876779  0.04317004  0.95027899
   0.00306656  0.00140926  0.23431955
   0.33438140  0.00100527  0.23263323
   0.86918560  0.00201663  0.01277703
   0.00645642  0.00226950  0.55758263
   0.66370335  0.00091382  0.85749500
Direct configuration=     7
   0.00217495  0.26008747  0.19244634
   0.16483971  0.00053540  0.19416773
   0.15905922  0.27620699  0.01442999
   0.00262780  0.74163986  0.19074181
   0.18026906  0.50027990  0.17560100
   0.16207991  0.72133985  0.01425628
   0.33495802  0.23936369  0.18109173
   0.50332344  0.00073318  0.18041972
   0.50818603  0.28698928  0.01518373
   0.33504988  0.76036082  0.18480696
   0.47667119  0.50017888  0.18339302
   0.50535238  0.71223629  0.01507358
   0.84305150  0.00141830  0.17930284
   0.84160297  0.25162438  0.01415842
   0.66928998  0.70513838  0.17907227
   0.85108818  0.50162612  0.17186846
   0.84144163  0.75162044  0.01426388
   0.00420815  0.24939396  0.52340279
   0.17698676  0.00145937  0.51226516
   0.16722893  0.29635657  0.34882131
   0.00389883  0.75462762  0.52266299
   0.15909943  0.50130791  0.53814503
   0.16672147  0.70537415  0.34894246
   0.33588768  0.27841740  0.50778782
   0.48598477  0.00165667  0.51293169
   0.50807408  0.28255922  0.34747540
   0.33569936  0.72556617  0.50942356
   0.50422736  0.50142422  0.53188183
   0.50816124  0.71932328  0.34771556
   0.66843823  0.27898458  0.52142610
   0.84115025  0.00221075  0.52273123
   0.83116517  0.27423254  0.34861524
   0.66877648  0.72524683  0.52076894
   0.85008035  0.50248385  0.50590309
   0.83138129  0.73016489  0.34800710
   0.00196741  0.27433190  0.83894024
   0.19993764  0.00090274  0.85560342
   0.19333741  0.23778775  0.68274514
   0.00360305  0.72494513  0.84137575
   0.16841616  0.49685035  0.83054270
   0.18979872  0.76258830  0.68314460
   0.33692832  0.27443870  0.86774449
   0.48409979  0.00090674  0.85814815
   0.47878543  0.24200561  0.68237916
   0.33588753  0.71524201  0.85911246
   0.51593350  0.49992249  0.82967761
   0.48206020  0.75966453  0.68237133
   0.66745870  0.24616519  0.84381729
   0.83395581  0.00125480  0.84841487
   0.83356533  0.29606483  0.68106053
   0.66691392  0.75444480  0.84543876
   0.82491123  0.50127870  0.86482070
   0.83404017  0.70994687  0.68142461
   0.66981570  0.29776043  0.17987694
   0.99785827  0.50255683  0.01245752
   0.33421575  0.50225692  0.01844220
   0.67049841  0.50201207  0.01151628
   0.99620322  0.50091672  0.34411073
   0.33834944  0.50141652  0.34169549
   0.66934141  0.50125520  0.34999633
   0.99944149  0.50396670  0.67458076
   0.33428704  0.00145067  0.66876055
   0.33445606  0.50409519  0.67701446
   0.66882117  0.50440195  0.67738883
   0.16731378  0.24375698  0.17642129
   0.16760247  0.75910116  0.17723365
   0.50543465  0.24053612  0.17663327
   0.50482725  0.76273500  0.17770098
   0.83140045  0.24267961  0.18079890
   0.83111396  0.76044117  0.18093726
   0.16884102  0.75764134  0.50605598
   0.50461513  0.24075558  0.50685495
   0.50489183  0.76367299  0.50763634
   0.83211945  0.23870230  0.51190047
   0.83228350  0.76607355  0.51124850
   0.16493295  0.24848486  0.84483583
   0.16758752  0.76638618  0.84751729
   0.50176846  0.25112482  0.84512717
   0.49950437  0.75880377  0.84805499
   0.83687487  0.24322029  0.84038118
   0.83752079  0.76081387  0.84123900
   0.16913629  0.24700763  0.50587237
   0.33876456  0.04317501  0.95028829
   0.00306683  0.00140611  0.23432659
   0.33438035  0.00100491  0.23263891
   0.86919854  0.00201061  0.01277978
   0.00645248  0.00226356  0.55759014
   0.66370069  0.00091570  0.85753110
Direct configuration=     8
   0.00217635  0.26008763  0.19245177
   0.16483623  0.00053431  0.19417315
   0.15905914  0.27620752  0.01443537
   0.00262659  0.74163644  0.19074766
   0.18027042  0.50027874  0.17560617
   0.16208069  0.72133860  0.01426284
   0.33495703  0.23936093  0.18109754
   0.50332331  0.00073313  0.18042616
   0.50818443  0.28698508  0.01519031
   0.33504846  0.76035743  0.18481437
   0.47667158  0.50017710  0.18339642
   0.50535010  0.71223549  0.01507976
   0.84305363  0.00141710  0.17930569
   0.84160285  0.25162434  0.01416308
   0.66928901  0.70513973  0.17907420
   0.85108566  0.50162485  0.17187107
   0.84144205  0.75161890  0.01426923
   0.00420366  0.24939134  0.52340958
   0.17698724  0.00145883  0.51227202
   0.16722590  0.29635498  0.34882693
   0.00389709  0.75462687  0.52266934
   0.15909865  0.50130858  0.53814966
   0.16671909  0.70537442  0.34894675
   0.33588367  0.27841249  0.50779446
   0.48598413  0.00165559  0.51293665
   0.50807318  0.28256040  0.34748070
   0.33569877  0.72556649  0.50942947
   0.50422184  0.50142207  0.53188993
   0.50816099  0.71931681  0.34771948
   0.66843674  0.27898696  0.52142915
   0.84114840  0.00220966  0.52273463
   0.83116653  0.27423134  0.34861754
   0.66877613  0.72523917  0.52077257
   0.85008180  0.50248394  0.50590620
   0.83138103  0.73016304  0.34800944
   0.00196439  0.27433292  0.83894283
   0.19993444  0.00089933  0.85560937
   0.19333608  0.23778851  0.68275309
   0.00359979  0.72494376  0.84137922
   0.16841363  0.49684911  0.83055095
   0.18979691  0.76258687  0.68315103
   0.33692729  0.27444456  0.86774931
   0.48409868  0.00090722  0.85815830
   0.47878535  0.24200196  0.68238520
   0.33588609  0.71523891  0.85911695
   0.51593351  0.49992113  0.82968418
   0.48206146  0.75966479  0.68237815
   0.66745738  0.24616458  0.84382461
   0.83395199  0.00125351  0.84842130
   0.83356282  0.29606340  0.68106572
   0.66691353  0.75444617  0.84545131
   0.82490719  0.50128053  0.86482538
   0.83403641  0.70994811  0.68142922
   0.66981371  0.29775587  0.17988250
   0.99785588  0.50255831  0.01245977
   0.33421400  0.50225596  0.01844780
   0.67049632  0.50201152  0.01152027
   0.99620114  0.50091517  0.34411484
   0.33834764  0.50141713  0.34170020
   0.66934048  0.50125379  0.34999977
   0.99943967  0.50396732  0.67458548
   0.33428505  0.00144951  0.66876550
   0.33445458  0.50409545  0.67702017
   0.66881959  0.50440166  0.67739228
   0.16731354  0.24375660  0.17642525
   0.16760202  0.75909976  0.17724005
   0.50543246  0.24053687  0.17663995
   0.50482635  0.76273493  0.17770420
   0.83139887  0.24267734  0.18079920
   0.83111333  0.76044023  0.18093946
   0.16883947  0.75764076  0.50605997
   0.50461309  0.24075431  0.50686213
   0.50488983  0.76367143  0.50763926
   0.83211739  0.23870128  0.51190290
   0.83228225  0.76607227  0.51125226
   0.16492901  0.24848390  0.84484263
   0.16758550  0.76638565  0.84752238
   0.50176799  0.25112567  0.84513128
   0.49950242  0.75880648  0.84806019
   0.83687167  0.24321789  0.84038356
   0.83751663  0.76081500  0.84124299
   0.16913248  0.24700715  0.50587901
   0.33876137  0.04317961  0.95029745
   0.00306728  0.00140309  0.23433359
   0.33437925  0.00100437  0.23264454
   0.86921149  0.00200471  0.01278263
   0.00644871  0.00225762  0.55759768
   0.66369823  0.00091784  0.85756727
Direct configuration=     9
   0.00217789  0.26008781  0.19245721
   0.16483272  0.00053295  0.19417857
   0.15905909  0.27620776  0.01444060
   0.00262540  0.74163304  0.19075360
   0.18027172  0.50027772  0.17561134
   0.16208146  0.72133748  0.01426934
   0.33495606  0.23935810  0.18110334
   0.50332321  0.00073284  0.18043262
   0.50818291  0.28698086  0.01519698
   0.33504720  0.76035432  0.18482173
   0.47667214  0.50017539  0.18339986
   0.50534790  0.71223472  0.01508601
   0.84305566  0.00141581  0.17930856
   0.84160265  0.25162403  0.01416769
   0.66928791  0.70514112  0.17907615
   0.85108299  0.50162366  0.17187366
   0.84144248  0.75161734  0.01427450
   0.00419921  0.24938860  0.52341634
   0.17698771  0.00145815  0.51227881
   0.16722273  0.29635306  0.34883262
   0.00389551  0.75462625  0.52267561
   0.15909778  0.50130932  0.53815425
   0.16671671  0.70537493  0.34895106
   0.33587979  0.27840729  0.50780104
   0.48598355  0.00165451  0.51294160
   0.50807235  0.28256143  0.34748609
   0.33569821  0.72556702  0.50943536
   0.50421638  0.50142003  0.53189805
   0.50816083  0.71931058  0.34772332
   0.66843517  0.27898929  0.52143221
   0.84114644  0.00220857  0.52273802
   0.83116783  0.27423001  0.34862005
   0.66877572  0.72523170  0.52077619
   0.85008313  0.50248403  0.50590926
   0.83138071  0.73016138  0.34801200
   0.00196130  0.27433368  0.83894557
   0.19993108  0.00089581  0.85561539
   0.19333462  0.23778911  0.68276102
   0.00359662  0.72494259  0.84138269
   0.16841110  0.49684795  0.83055935
   0.18979499  0.76258541  0.68315763
   0.33692600  0.27445013  0.86775421
   0.48409754  0.00090766  0.85816853
   0.47878537  0.24199812  0.68239123
   0.33588458  0.71523610  0.85912150
   0.51593359  0.49991963  0.82969076
   0.48206280  0.75966513  0.68238475
   0.66745613  0.24616388  0.84383204
   0.83394820  0.00125227  0.84842775
   0.83356027  0.29606189  0.68107094
   0.66691313  0.75444767  0.84546388
   0.82490300  0.50128238  0.86483017
   0.83403263  0.70994954  0.68143387
   0.66981158  0.29775134  0.17988809
   0.99785347  0.50255976  0.01246211
   0.33421222  0.50225496  0.01845342
   0.67049425  0.50201093  0.01152423
   0.99619905  0.50091362  0.34411889
   0.33834578  0.50141768  0.34170483
   0.66933959  0.50125238  0.35000315
   0.99943788  0.50396795  0.67459015
   0.33428303  0.00144840  0.66877050
   0.33445308  0.50409569  0.67702589
   0.66881799  0.50440135  0.67739576
   0.16731333  0.24375627  0.17642918
   0.16760153  0.75909830  0.17724643
   0.50543018  0.24053767  0.17664645
   0.50482539  0.76273488  0.17770742
   0.83139734  0.24267511  0.18079957
   0.83111270  0.76043925  0.18094166
   0.16883796  0.75763998  0.50606396
   0.50461100  0.24075311  0.50686923
   0.50488784  0.76366978  0.50764214