unknown system                          
           1
    11.636000    0.000000    0.000000
     0.000000    7.905000    0.000000
     0.000000    0.000000   11.636000
   O    La   Ti   Li
    54    10    18     6
Direct configuration=     1
   0.00140497  0.26056853  0.23755446
   0.16341180  0.00086131  0.23895457
   0.15810323  0.27330562  0.05776910
   0.00179575  0.74166783  0.23549782
   0.17891519  0.50055247  0.21799225
   0.16085647  0.72431530  0.05771406
   0.33353080  0.24010738  0.22593886
   0.50187726  0.00111813  0.22262853
   0.50477122  0.28828288  0.05898995
   0.33364033  0.76037584  0.22922166
   0.47642265  0.50069509  0.22755650
   0.50239970  0.71156021  0.05873292
   0.84357525  0.00177715  0.22240966
   0.84441863  0.25280700  0.05828665
   0.66814450  0.70758604  0.22123136
   0.84944782  0.50206723  0.21618004
   0.84369651  0.75125155  0.05824913
   0.00258104  0.24965629  0.56740714
   0.17521063  0.00194504  0.55627107
   0.16626206  0.29775627  0.39278367
   0.00234560  0.75570493  0.56669255
   0.15796792  0.50190093  0.58218116
   0.16585691  0.70493371  0.39286379
   0.33476914  0.27708165  0.55203652
   0.48528140  0.00221982  0.55570460
   0.50711011  0.28310702  0.39079434
   0.33457594  0.72802783  0.55395915
   0.50088957  0.50204366  0.57619578
   0.50700114  0.71991808  0.39102454
   0.66700940  0.28236046  0.56374204
   0.83939599  0.00280130  0.56512058
   0.82957339  0.27508039  0.39205738
   0.66735020  0.72347524  0.56309016
   0.84981465  0.50318005  0.55052600
   0.82995264  0.73044386  0.39137834
   0.00052341  0.27414358  0.88110409
   0.19930657  0.00136895  0.89808158
   0.19226329  0.23912931  0.72607443
   0.00223702  0.72624353  0.88386930
   0.16593666  0.49747393  0.87575693
   0.18866009  0.76227877  0.72654851
   0.33600695  0.27735171  0.90947998
   0.48128847  0.00150005  0.90619687
   0.48017868  0.24048798  0.72613843
   0.33502163  0.71316533  0.90115421
   0.51767908  0.50006947  0.87285984
   0.48316542  0.76191276  0.72637507
   0.66659939  0.24314584  0.89480611
   0.83439029  0.00189862  0.89618408
   0.83007310  0.29469095  0.72485630
   0.66601073  0.75830998  0.89549575
   0.82304013  0.50170636  0.90774077
   0.83092143  0.71240061  0.72518670
   0.66873052  0.29610957  0.22187528
   0.99596796  0.50358108  0.05480008
   0.33272779  0.50293714  0.06122606
   0.66807579  0.50241117  0.05339769
   0.99461297  0.50131301  0.38706103
   0.33707855  0.50166860  0.38486733
   0.66815349  0.50170665  0.39121759
   0.99705784  0.50489111  0.71800539
   0.33239490  0.00214766  0.71137191
   0.33298509  0.50444208  0.72084645
   0.66714342  0.50537119  0.71915511
   0.16579066  0.24401626  0.21982813
   0.16608361  0.75964460  0.22076937
   0.50360774  0.24104915  0.21958850
   0.50289330  0.76291812  0.22045933
   0.83043410  0.24277258  0.22325315
   0.82994282  0.76102498  0.22330245
   0.16722623  0.75756793  0.54976744
   0.50330812  0.24134313  0.54968722
   0.50352995  0.76437995  0.55027463
   0.83041766  0.23918266  0.55456702
   0.83066386  0.76658947  0.55374361
   0.16312435  0.24906563  0.88793359
   0.16619764  0.76666849  0.89068056
   0.50107666  0.25038518  0.88777147
   0.49846399  0.76106380  0.89060269
   0.83457866  0.24264918  0.88339292
   0.83507415  0.76297430  0.88421700
   0.16751312  0.24764092  0.54944002
   0.33630296  0.04744027  0.99477676
   0.00203573  0.00184669  0.28296247
   0.33303055  0.00133884  0.27712403
   0.88425625  0.00278832  0.05660912
   0.00480577  0.00287212  0.60208200
   0.66242407  0.00177601  0.93913122
Direct configuration=     2
   0.00140442  0.26056622  0.23755938
   0.16341112  0.00085992  0.23896083
   0.15810298  0.27330587  0.05777394
   0.00179578  0.74166708  0.23550381
   0.17891554  0.50055135  0.21799533
   0.16085662  0.72431443  0.05771860
   0.33353107  0.24010561  0.22594027
   0.50187713  0.00111730  0.22263297
   0.50477115  0.28828444  0.05899569
   0.33363991  0.76037627  0.22922757
   0.47642224  0.50069428  0.22756099
   0.50239925  0.71155865  0.05873894
   0.84357554  0.00177587  0.22241619
   0.84441788  0.25280795  0.05829188
   0.66814428  0.70758564  0.22123752
   0.84944974  0.50206726  0.21618553
   0.84369578  0.75125186  0.05825517
   0.00258103  0.24965587  0.56741132
   0.17521082  0.00194535  0.55627486
   0.16626316  0.29775546  0.39278842
   0.00234563  0.75570503  0.56669755
   0.15796821  0.50190080  0.58218703
   0.16585710  0.70493386  0.39287008
   0.33476934  0.27708022  0.55204087
   0.48528249  0.00221949  0.55570921
   0.50710890  0.28310273  0.39079959
   0.33457618  0.72802839  0.55396379
   0.50089099  0.50204304  0.57620020
   0.50700089  0.71991920  0.39102917
   0.66700969  0.28235757  0.56374740
   0.83939731  0.00280177  0.56512924
   0.82957389  0.27507828  0.39206271
   0.66735060  0.72347796  0.56309506
   0.84981385  0.50317983  0.55053213
   0.82995380  0.73044662  0.39138488
   0.00052491  0.27414552  0.88111070
   0.19930608  0.00136872  0.89808601
   0.19226271  0.23912770  0.72607930
   0.00223673  0.72624274  0.88387639
   0.16593784  0.49747457  0.87576153
   0.18865750  0.76228150  0.72655375
   0.33600650  0.27735194  0.90948599
   0.48128794  0.00150105  0.90620165
   0.48017845  0.24048745  0.72614366
   0.33502170  0.71316490  0.90116007
   0.51767940  0.50006922  0.87286554
   0.48316753  0.76191247  0.72638106
   0.66660018  0.24314570  0.89481051
   0.83439090  0.00189810  0.89619051
   0.83007442  0.29469062  0.72486298
   0.66601094  0.75830976  0.89550173
   0.82304004  0.50170526  0.90774741
   0.83092146  0.71239962  0.72519358
   0.66873018  0.29610980  0.22187975
   0.99596781  0.50358158  0.05480613
   0.33272794  0.50293778  0.06123137
   0.66807564  0.50241124  0.05340391
   0.99461298  0.50131337  0.38706722
   0.33707824  0.50166884  0.38487293
   0.66815350  0.50170706  0.39122422
   0.99705746  0.50488983  0.71801105
   0.33239550  0.00214862  0.71137815
   0.33298600  0.50444141  0.72085264
   0.66714315  0.50537085  0.71916148
   0.16578984  0.24401829  0.21983452
   0.16608351  0.75964436  0.22077651
   0.50360774  0.24104823  0.21959389
   0.50289423  0.76291739  0.22046685
   0.83043282  0.24276915  0.22325967
   0.82994349  0.76102289  0.22331011
   0.16722535  0.75756879  0.54977477
   0.50330802  0.24134156  0.54969371
   0.50353005  0.76438113  0.55028047
   0.83041782  0.23918214  0.55457300
   0.83066475  0.76659002  0.55375087
   0.16312483  0.24906375  0.88794050
   0.16619772  0.76666705  0.89068631
   0.50107815  0.25038344  0.88777768
   0.49846346  0.76106187  0.89060881
   0.83457969  0.24264820  0.88339894
   0.83507410  0.76297342  0.88422465
   0.16751394  0.24764125  0.54944653
   0.33630208  0.04744007  0.99478366
   0.00203567  0.00184616  0.28296778
   0.33303048  0.00133934  0.27712949
   0.88425409  0.00278923  0.05661451
   0.00480612  0.00287003  0.60208862
   0.66242462  0.00177542  0.93913608
Direct configuration=     3
   0.00140383  0.26056402  0.23756434
   0.16341043  0.00085861  0.23896713
   0.15810274  0.27330613  0.05777903
   0.00179574  0.74166622  0.23550987
   0.17891588  0.50055018  0.21799867
   0.16085679  0.72431354  0.05772339
   0.33353138  0.24010392  0.22594172
   0.50187704  0.00111644  0.22263740
   0.50477106  0.28828598  0.05900173
   0.33363958  0.76037645  0.22923347
   0.47642179  0.50069334  0.22756562
   0.50239877  0.71155710  0.05874522
   0.84357586  0.00177459  0.22242272
   0.84441705  0.25280889  0.05829727
   0.66814407  0.70758518  0.22124370
   0.84945169  0.50206734  0.21619116
   0.84369509  0.75125222  0.05826139
   0.00258109  0.24965551  0.56741544
   0.17521071  0.00194566  0.55627848
   0.16626426  0.29775476  0.39279298
   0.00234566  0.75570505  0.56670248
   0.15796851  0.50190059  0.58219287
   0.16585724  0.70493378  0.39287626
   0.33476951  0.27707903  0.55204518
   0.48528379  0.00221914  0.55571355
   0.50710762  0.28309858  0.39080454
   0.33457646  0.72802867  0.55396829
   0.50089241  0.50204241  0.57620459
   0.50700067  0.71992014  0.39103352
   0.66700998  0.28235474  0.56375276
   0.83939869  0.00280220  0.56513781
   0.82957453  0.27507628  0.39206792
   0.66735102  0.72348063  0.56309990
   0.84981313  0.50317957  0.55053813
   0.82995509  0.73044920  0.39139132
   0.00052636  0.27414744  0.88111723
   0.19930546  0.00136851  0.89809054
   0.19226185  0.23912662  0.72608418
   0.00223652  0.72624192  0.88388345
   0.16593907  0.49747525  0.87576608
   0.18865470  0.76228374  0.72655894
   0.33600613  0.27735234  0.90949197
   0.48128749  0.00150190  0.90620661
   0.48017841  0.24048738  0.72614882
   0.33502174  0.71316431  0.90116592
   0.51767973  0.50006899  0.87287115
   0.48316981  0.76191176  0.72638699
   0.66660098  0.24314563  0.89481488
   0.83439149  0.00189752  0.89619697
   0.83007575  0.29469037  0.72486962
   0.66601112  0.75830943  0.89550775
   0.82303993  0.50170406  0.90775401
   0.83092147  0.71239851  0.72520046
   0.66872982  0.29611003  0.22188430
   0.99596765  0.50358205  0.05481220
   0.33272808  0.50293839  0.06123669
   0.66807551  0.50241130  0.05341012
   0.99461297  0.50131373  0.38707340
   0.33707794  0.50166908  0.38487849
   0.66815352  0.50170746  0.39123084
   0.99705706  0.50488854  0.71801665
   0.33239609  0.00214956  0.71138433
   0.33298689  0.50444075  0.72085877
   0.66714291  0.50537052  0.71916777
   0.16578903  0.24402039  0.21984086
   0.16608344  0.75964422  0.22078357
   0.50360772  0.24104731  0.21959931
   0.50289515  0.76291670  0.22047426
   0.83043155  0.24276576  0.22326602
   0.82994420  0.76102084  0.22331779
   0.16722448  0.75756976  0.54978206
   0.50330793  0.24133992  0.54970029
   0.50353019  0.76438244  0.55028638
   0.83041801  0.23918160  0.55457906
   0.83066572  0.76659061  0.55375818
   0.16312528  0.24906182  0.88794747
   0.16619775  0.76666568  0.89069208
   0.50107962  0.25038174  0.88778394
   0.49846286  0.76105989  0.89061486
   0.83458076  0.24264720  0.88340498
   0.83507399  0.76297257  0.88423230
   0.16751481  0.24764157  0.54945303
   0.33630114  0.04743980  0.99479059
   0.00203562  0.00184572  0.28297300
   0.33303033  0.00133993  0.27713483
   0.88425199  0.00278989  0.05661982
   0.00480645  0.00286799  0.60209524
   0.66242517  0.00177466  0.93914092
Direct configuration=     4
   0.00140327  0.26056181  0.23756936
   0.16340971  0.00085727  0.23897347
   0.15810246  0.27330624  0.05778410
   0.00179573  0.74166537  0.23551601
   0.17891616  0.50054907  0.21800217
   0.16085690  0.72431279  0.05772823
   0.33353176  0.24010201  0.22594318
   0.50187709  0.00111544  0.22264185
   0.50477107  0.28828743  0.05900777
   0.33363936  0.76037669  0.22923935
   0.47642150  0.50069236  0.22757039
   0.50239837  0.71155564  0.05875156
   0.84357610  0.00177328  0.22242930
   0.84441615  0.25280973  0.05830258
   0.66814382  0.70758471  0.22124990
   0.84945354  0.50206752  0.21619685
   0.84369448  0.75125268  0.05826760
   0.00258130  0.24965500  0.56741960
   0.17521056  0.00194595  0.55628219
   0.16626536  0.29775414  0.39279748
   0.00234576  0.75570516  0.56670738
   0.15796882  0.50190034  0.58219874
   0.16585734  0.70493352  0.39288242
   0.33476976  0.27707776  0.55204958
   0.48528515  0.00221875  0.55571799
   0.50710643  0.28309440  0.39080936
   0.33457686  0.72802900  0.55397277
   0.50089394  0.50204182  0.57620907
   0.50700061  0.71992108  0.39103778
   0.66701013  0.28235183  0.56375821
   0.83940004  0.00280255  0.56514643
   0.82957517  0.27507430  0.39207305
   0.66735134  0.72348338  0.56310478
   0.84981240  0.50317931  0.55054399
   0.82995636  0.73045172  0.39139767
   0.00052776  0.27414931  0.88112367
   0.19930489  0.00136835  0.89809499
   0.19226100  0.23912550  0.72608934
   0.00223637  0.72624106  0.88389050
   0.16594025  0.49747586  0.87577056
   0.18865198  0.76228605  0.72656429
   0.33600598  0.27735271  0.90949778
   0.48128695  0.00150265  0.90621156
   0.48017833  0.24048731  0.72615416
   0.33502187  0.71316376  0.90117171
   0.51768012  0.50006869  0.87287660
   0.48317203  0.76191108  0.72639301
   0.66660167  0.24314563  0.89481914
   0.83439208  0.00189691  0.89620340
   0.83007703  0.29469015  0.72487656
   0.66601117  0.75830897  0.89551378
   0.82303980  0.50170275  0.90776052
   0.83092140  0.71239731  0.72520764
   0.66872937  0.29611023  0.22188890
   0.99596751  0.50358251  0.05481825
   0.33272819  0.50293901  0.06124195
   0.66807539  0.50241136  0.05341631
   0.99461300  0.50131409  0.38707960
   0.33707763  0.50166932  0.38488409
   0.66815354  0.50170785  0.39123748
   0.99705668  0.50488722  0.71802235
   0.33239670  0.00215046  0.71139057
   0.33298778  0.50444009  0.72086497
   0.66714266  0.50537019  0.71917411
   0.16578823  0.24402253  0.21984717
   0.16608339  0.75964422  0.22079058
   0.50360771  0.24104633  0.21960475
   0.50289609  0.76291608  0.22048156
   0.83043027  0.24276234  0.22327223
   0.82994490  0.76101890  0.22332552
   0.16722360  0.75757083  0.54978930
   0.50330787  0.24133822  0.54970695
   0.50353036  0.76438387  0.55029233
   0.83041822  0.23918098  0.55458518
   0.83066673  0.76659128  0.55376554
   0.16312571  0.24905983  0.88795453
   0.16619782  0.76666439  0.89069789
   0.50108104  0.25038003  0.88779028
   0.49846218  0.76105786  0.89062086
   0.83458188  0.24264616  0.88341104
   0.83507385  0.76297177  0.88423996
   0.16751570  0.24764186  0.54945950
   0.33630012  0.04743946  0.99479756
   0.00203561  0.00184536  0.28297816
   0.33303010  0.00134056  0.27714006
   0.88425002  0.00279030  0.05662504
   0.00480672  0.00286601  0.60210192
   0.66242573  0.00177375  0.93914581
Direct configuration=     5
   0.00140275  0.26055930  0.23757439
   0.16340900  0.00085589  0.23897977
   0.15810216  0.27330579  0.05778913
   0.00179579  0.74166482  0.23552218
   0.17891635  0.50054803  0.21800585
   0.16085700  0.72431265  0.05773313
   0.33353218  0.24009968  0.22594464
   0.50187731  0.00111427  0.22264628
   0.50477113  0.28828837  0.05901378
   0.33363924  0.76037720  0.22924516
   0.47642141  0.50069135  0.22757526
   0.50239802  0.71155469  0.05875796
   0.84357623  0.00177191  0.22243595
   0.84441513  0.25281020  0.05830782
   0.66814354  0.70758461  0.22125620
   0.84945524  0.50206780  0.21620267
   0.84369389  0.75125354  0.05827382
   0.00258164  0.24965415  0.56742374
   0.17521028  0.00194618  0.55628584
   0.16626643  0.29775323  0.39280196
   0.00234593  0.75570559  0.56671222
   0.15796918  0.50190006  0.58220457
   0.16585739  0.70493347  0.39288857
   0.33477012  0.27707618  0.55205405
   0.48528671  0.00221831  0.55572232
   0.50710533  0.28308979  0.39081413
   0.33457742  0.72802961  0.55397719
   0.50089560  0.50204126  0.57621353
   0.50700073  0.71992243  0.39104199
   0.66701014  0.28234850  0.56376376
   0.83940133  0.00280281  0.56515502
   0.82957581  0.27507199  0.39207815
   0.66735155  0.72348655  0.56310968
   0.84981157  0.50317905  0.55054980
   0.82995760  0.73045452  0.39140399
   0.00052913  0.27415060  0.88113002
   0.19930418  0.00136816  0.89809954
   0.19225995  0.23912426  0.72609478
   0.00223633  0.72624071  0.88389754
   0.16594138  0.49747633  0.87577505
   0.18864913  0.76228847  0.72656981
   0.33600605  0.27735269  0.90950350
   0.48128648  0.00150324  0.90621662
   0.48017845  0.24048715  0.72615968
   0.33502206  0.71316365  0.90117752
   0.51768046  0.50006827  0.87288200
   0.48317441  0.76191053  0.72639911
   0.66660225  0.24314537  0.89482325
   0.83439271  0.00189627  0.89620969
   0.83007829  0.29468954  0.72488380
   0.66601110  0.75830875  0.89551977
   0.82303972  0.50170132  0.90776680
   0.83092126  0.71239644  0.72521509
   0.66872888  0.29611004  0.22189362
   0.99596739  0.50358293  0.05482433
   0.33272828  0.50293962  0.06124722
   0.66807529  0.50241140  0.05342252
   0.99461303  0.50131445  0.38708581
   0.33707732  0.50166958  0.38488970
   0.66815356  0.50170822  0.39124412
   0.99705628  0.50488588  0.71802802
   0.33239730  0.00215135  0.71139679
   0.33298866  0.50443943  0.72087113
   0.66714245  0.50536987  0.71918040
   0.16578742  0.24402468  0.21985344
   0.16608335  0.75964438  0.22079751
   0.50360769  0.24104532  0.21961022
   0.50289704  0.76291553  0.22048877
   0.83042899  0.24275892  0.22327829
   0.82994555  0.76101705  0.22333328
   0.16722270  0.75757201  0.54979645
   0.50330785  0.24133647  0.54971363
   0.50353060  0.76438541  0.55029829
   0.83041846  0.23918031  0.55459135
   0.83066780  0.76659203  0.55377294
   0.16312607  0.24905782  0.88796168
   0.16619791  0.76666322  0.89070375
   0.50108244  0.25037830  0.88779672
   0.49846143  0.76105581  0.89062685
   0.83458306  0.24264507  0.88341712
   0.83507367  0.76297103  0.88424762
   0.16751660  0.24764213  0.54946591
   0.33629900  0.04743904  0.99480456
   0.00203567  0.00184510  0.28298324
   0.33302976  0.00134123  0.27714517
   0.88424814  0.00279048  0.05663020
   0.00480696  0.00286413  0.60210861
   0.66242621  0.00177271  0.93915071
Direct configuration=     6
   0.00140217  0.26055687  0.23757947
   0.16340826  0.00085459  0.23898615
   0.15810185  0.27330535  0.05779422
   0.00179576  0.74166421  0.23552842
   0.17891650  0.50054702  0.21800973
   0.16085707  0.72431250  0.05773815
   0.33353263  0.24009728  0.22594614
   0.50187752  0.00111306  0.22265074
   0.50477123  0.28828925  0.05901984
   0.33363921  0.76037762  0.22925095
   0.47642135  0.50069027  0.22758027
   0.50239768  0.71155379  0.05876444
   0.84357645  0.00177056  0.22244256
   0.84441407  0.25281058  0.05831310
   0.66814327  0.70758439  0.22126252
   0.84945688  0.50206812  0.21620856
   0.84369337  0.75125449  0.05828010
   0.00258201  0.24965328  0.56742787
   0.17520995  0.00194640  0.55628965
   0.16626749  0.29775248  0.39280623
   0.00234604  0.75570601  0.56671703
   0.15796956  0.50189975  0.58221041
   0.16585738  0.70493317  0.39289457
   0.33477051  0.27707461  0.55205862
   0.48528817  0.00221785  0.55572678
   0.50710423  0.28308533  0.39081870
   0.33457806  0.72803018  0.55398165
   0.50089731  0.50204073  0.57621799
   0.50700092  0.71992362  0.39104605
   0.66701013  0.28234530  0.56376937
   0.83940274  0.00280300  0.56516360
   0.82957652  0.27506985  0.39208319
   0.66735176  0.72348961  0.56311459
   0.84981078  0.50317877  0.55055545
   0.82995891  0.73045709  0.39141025
   0.00053041  0.27415195  0.88113626
   0.19930364  0.00136817  0.89810398
   0.19225895  0.23912305  0.72610016
   0.00223638  0.72624025  0.88390453
   0.16594250  0.49747686  0.87577942
   0.18864639  0.76229088  0.72657521
   0.33600617  0.27735265  0.90950908
   0.48128593  0.00150379  0.90622171
   0.48017847  0.24048702  0.72616501
   0.33502218  0.71316357  0.90118323
   0.51768081  0.50006790  0.87288725
   0.48317665  0.76190995  0.72640500
   0.66660284  0.24314511  0.89482732
   0.83439328  0.00189561  0.89621609
   0.83007953  0.29468909  0.72489090
   0.66601098  0.75830845  0.89552578
   0.82303962  0.50169982  0.90777299
   0.83092109  0.71239536  0.72522244
   0.66872836  0.29610991  0.22189841
   0.99596728  0.50358332  0.05483040
   0.33272835  0.50294021  0.06125244
   0.66807520  0.50241144  0.05342871
   0.99461308  0.50131481  0.38709203
   0.33707700  0.50166984  0.38489533
   0.66815359  0.50170859  0.39125077
   0.99705589  0.50488452  0.71803375
   0.33239792  0.00215221  0.71140305
   0.33298955  0.50443877  0.72087734
   0.66714225  0.50536955  0.71918673
   0.16578664  0.24402689  0.21985969
   0.16608335  0.75964464  0.22080439
   0.50360767  0.24104428  0.21961571
   0.50289801  0.76291501  0.22049586
   0.83042770  0.24275558  0.22328420
   0.82994614  0.76101526  0.22334104
   0.16722183  0.75757325  0.54980358
   0.50330785  0.24133468  0.54972042
   0.50353087  0.76438703  0.55030434
   0.83041871  0.23917961  0.55459761
   0.83066892  0.76659281  0.55378042
   0.16312643  0.24905576  0.88796895
   0.16619803  0.76666207  0.89070970
   0.50108380  0.25037657  0.88780328
   0.49846062  0.76105366  0.89063284
   0.83458429  0.24264396  0.88342327
   0.83507345  0.76297033  0.88425526
   0.16751755  0.24764241  0.54947233
   0.33629777  0.04743853  0.99481139
   0.00203575  0.00184494  0.28298813
   0.33302938  0.00134196  0.27715006
   0.88424626  0.00279042  0.05663529
   0.00480707  0.00286237  0.60211527
   0.66242672  0.00177155  0.93915553
Direct configuration=     7
   0.00140154  0.26055427  0.23758463
   0.16340749  0.00085335  0.23899263
   0.15810152  0.27330457  0.05779943
   0.00179570  0.74166377  0.23553479
   0.17891655  0.50054605  0.21801391
   0.16085715  0.72431271  0.05774331
   0.33353307  0.24009461  0.22594770
   0.50187781  0.00111176  0.22265527
   0.50477136  0.28828978  0.05902603
   0.33363926  0.76037812  0.22925677
   0.47642143  0.50068913  0.22758551
   0.50239735  0.71155323  0.05877110
   0.84357664  0.00176921  0.22244926
   0.84441292  0.25281060  0.05831855
   0.66814302  0.70758437  0.22126899
   0.84945843  0.50206849  0.21621467
   0.84369291  0.75125578  0.05828655
   0.00258246  0.24965217  0.56743199
   0.17520942  0.00194660  0.55629345
   0.16626854  0.29775160  0.39281043
   0.00234614  0.75570664  0.56672179
   0.15796997  0.50189939  0.58221618
   0.16585729  0.70493289  0.39290053
   0.33477094  0.27707288  0.55206325
   0.48528973  0.00221735  0.55573120
   0.50710313  0.28308062  0.39082317
   0.33457879  0.72803087  0.55398607
   0.50089908  0.50204024  0.57622240
   0.50700121  0.71992500  0.39105007
   0.66701008  0.28234185  0.56377505
   0.83940420  0.00280312  0.56517223
   0.82957732  0.27506753  0.39208826
   0.66735195  0.72349291  0.56311953
   0.84980997  0.50317848  0.55056101
   0.82996031  0.73045975  0.39141653
   0.00053164  0.27415301  0.88114246
   0.19930304  0.00136825  0.89810850
   0.19225778  0.23912186  0.72610552
   0.00223655  0.72624005  0.88391155
   0.16594362  0.49747742  0.87578374
   0.18864354  0.76229328  0.72658054
   0.33600636  0.27735239  0.90951459
   0.48128541  0.00150419  0.90622697
   0.48017857  0.24048692  0.72617018
   0.33502223  0.71316377  0.90118893
   0.51768110  0.50006756  0.87289244
   0.48317898  0.76190938  0.72641071
   0.66660341  0.24314464  0.89483136
   0.83439385  0.00189489  0.89622257
   0.83008079  0.29468848  0.72489787
   0.66601079  0.75830833  0.89553186
   0.82303958  0.50169825  0.90777907
   0.83092089  0.71239440  0.72522972
   0.66872783  0.29610951  0.22190337
   0.99596718  0.50358369  0.05483648
   0.33272841  0.50294079  0.06125766
   0.66807513  0.50241146  0.05343491
   0.99461313  0.50131516  0.38709826
   0.33707668  0.50167009  0.38490096
   0.66815362  0.50170893  0.39125744
   0.99705549  0.50488313  0.71803948
   0.33239853  0.00215306  0.71140930
   0.33299042  0.50443810  0.72088354
   0.66714207  0.50536923  0.71919303
   0.16578588  0.24402912  0.21986591
   0.16608339  0.75964501  0.22081121
   0.50360764  0.24104322  0.21962123
   0.50289897  0.76291453  0.22050283
   0.83042643  0.24275230  0.22328993
   0.82994668  0.76101355  0.22334881
   0.16722097  0.75757456  0.54981066
   0.50330788  0.24133289  0.54972728
   0.50353120  0.76438872  0.55031042
   0.83041900  0.23917887  0.55460393
   0.83067008  0.76659363  0.55378796
   0.16312676  0.24905365  0.88797635
   0.16619815  0.76666097  0.89071569
   0.50108514  0.25037484  0.88780998
   0.49845978  0.76105146  0.89063884
   0.83458555  0.24264281  0.88342949
   0.83507319  0.76296969  0.88426289
   0.16751852  0.24764270  0.54947873
   0.33629643  0.04743792  0.99481811
   0.00203587  0.00184489  0.28299286
   0.33302893  0.00134276  0.27715475
   0.88424441  0.00279013  0.05664035
   0.00480712  0.00286076  0.60212189
   0.66242718  0.00177024  0.93916032
Direct configuration=     8
   0.00140086  0.26055183  0.23758989
   0.16340672  0.00085219  0.23899917
   0.15810119  0.27330382  0.05780470
   0.00179557  0.74166319  0.23554126
   0.17891658  0.50054508  0.21801834
   0.16085721  0.72431288  0.05774860
   0.33353352  0.24009191  0.22594933
   0.50187814  0.00111040  0.22265982
   0.50477153  0.28829035  0.05903223
   0.33363938  0.76037848  0.22926261
   0.47642145  0.50068791  0.22759094
   0.50239703  0.71155258  0.05877781
   0.84357688  0.00176787  0.22245595
   0.84441173  0.25281058  0.05832407
   0.66814285  0.70758412  0.22127552
   0.84945998  0.50206888  0.21622087
   0.84369253  0.75125711  0.05829307
   0.00258297  0.24965108  0.56743612
   0.17520890  0.00194678  0.55629743
   0.16626957  0.29775099  0.39281463
   0.00234621  0.75570725  0.56672654
   0.15797038  0.50189900  0.58222210
   0.16585714  0.70493222  0.39290650
   0.33477144  0.27707126  0.55206802
   0.48529115  0.00221681  0.55573578
   0.50710205  0.28307611  0.39082760
   0.33457963  0.72803143  0.55399058
   0.50090084  0.50203978  0.57622693
   0.50700158  0.71992613  0.39105411
   0.66700999  0.28233858  0.56378084
   0.83940575  0.00280316  0.56518084
   0.82957818  0.27506541  0.39209336
   0.66735212  0.72349606  0.56312452
   0.84980927  0.50317816  0.55056643
   0.82996178  0.73046216  0.39142284
   0.00053284  0.27415415  0.88114856
   0.19930267  0.00136835  0.89811295
   0.19225677  0.23912067  0.72611092
   0.00223687  0.72623966  0.88391853
   0.16594478  0.49747799  0.87578792
   0.18864089  0.76229562  0.72658583
   0.33600665  0.27735229  0.90952006
   0.48128480  0.00150443  0.90623228
   0.48017850  0.24048684  0.72617528
   0.33502224  0.71316378  0.90119458
   0.51768144  0.50006727  0.87289744
   0.48318112  0.76190877  0.72641630
   0.66660391  0.24314418  0.89483535
   0.83439436  0.00189412  0.89622913
   0.83008205  0.29468815  0.72490487
   0.66601053  0.75830811  0.89553799
   0.82303948  0.50169664  0.90778516
   0.83092067  0.71239312  0.72523705
   0.66872736  0.29610928  0.22190845
   0.99596709  0.50358404  0.05484258
   0.33272844  0.50294137  0.06126288
   0.66807508  0.50241148  0.05344113
   0.99461319  0.50131551  0.38710451
   0.33707636  0.50167036  0.38490660
   0.66815365  0.50170926  0.39126411
   0.99705510  0.50488172  0.71804524
   0.33239913  0.00215388  0.71141555
   0.33299127  0.50443745  0.72088975
   0.66714191  0.50536892  0.71919933
   0.16578514  0.24403144  0.21987209
   0.16608346  0.75964546  0.22081795
   0.50360757  0.24104220  0.21962678
   0.50289992  0.76291402  0.22050970
   0.83042516  0.24274913  0.22329550
   0.82994717  0.76101187  0.22335657
   0.16722011  0.75757588  0.54981764
   0.50330795  0.24133116  0.54973414
   0.50353157  0.76439040  0.55031650
   0.83041928  0.23917811  0.55461027
   0.83067127  0.76659445  0.55379553
   0.16312706  0.24905167  0.88798383
   0.16619827  0.76665987  0.89072172
   0.50108644  0.25037317  0.88781682
   0.49845888  0.76104917  0.89064486
   0.83458686  0.24264169  0.88343575
   0.83507289  0.76296904  0.88427050
   0.16751950  0.24764305  0.54948506
   0.33629504  0.04743725  0.99482489
   0.00203603  0.00184493  0.28299752
   0.33302839  0.00134360  0.27715931
   0.88424267  0.00278956  0.05664540
   0.00480711  0.00285930  0.60212852
   0.66242761  0.00176878  0.93916513
Direct configuration=     9
   0.00140022  0.26054945  0.23759510
   0.16340595  0.00085110  0.23900579
   0.15810085  0.27330291  0.05780995
   0.00179549  0.74166259  0.23554773
   0.17891648  0.50054409  0.21802299
   0.16085726  0.72431326  0.05775398
   0.33353392  0.24008919  0.22595099
   0.50187855  0.00110894  0.22266443
   0.50477177  0.28829066  0.05903831
   0.33363952  0.76037872  0.22926844
   0.47642164  0.50068659  0.22759649
   0.50239675  0.71155219  0.05878447
   0.84357706  0.00176652  0.22246266
   0.84441044  0.25281050  0.05832962
   0.66814278  0.70758398  0.22128208
   0.84946135  0.50206930  0.21622715
   0.84369216  0.75125846  0.05829966
   0.00258366  0.24965001  0.56744027
   0.17520850  0.00194689  0.55630166
   0.16627062  0.29775026  0.39281894
   0.00234640  0.75570781  0.56673129
   0.15797088  0.50189856  0.58222793
   0.16585696  0.70493160  0.39291257
   0.33477197  0.27706937  0.55207302
   0.48529241  0.00221622  0.55574062
   0.50710095  0.28307147  0.39083215
   0.33458053  0.72803225  0.55399524
   0.50090266  0.50203932  0.57623144
   0.50700199  0.71992737  0.39105829
   0.66700980  0.28233521  0.56378675
   0.83940730  0.00280310  0.56518954
   0.82957910  0.27506330  0.39209849
   0.66735220  0.72349929  0.56312958
   0.84980846  0.50317782  0.55057182
   0.82996330  0.73046448  0.39142915
   0.00053395  0.27415508  0.88115458
   0.19930238  0.00136858  0.89811716
   0.19225583  0.23911923  0.72611651
   0.00223724  0.72623939  0.88392548
   0.16594591  0.49747833  0.87579204
   0.18863839  0.76229822  0.72659119
   0.33600721  0.27735197  0.90952516
   0.48128409  0.00150455  0.90623748
   0.48017834  0.24048657  0.72618056
   0.33502237  0.71316414  0.90119996
   0.51768172  0.50006682  0.87290234
   0.48318313  0.76190840  0.72642196
   0.66660429  0.24314383  0.89483926
   0.83439487  0.00189336  0.89623565
   0.83008327  0.29468769  0.72491207
   0.66601015  0.75830773  0.89554411
   0.82303940  0.50169494  0.90779103
   0.83092037  0.71239195  0.72524457
   0.66872694  0.29610890  0.22191359
   0.99596699  0.50358435  0.05484870
   0.33272846  0.50294191  0.06126810
   0.66807505  0.50241149  0.05344735
   0.99461325  0.50131586  0.38711075
   0.33707604  0.50167062  0.38491224
   0.66815369  0.50170958  0.39127078
   0.99705469  0.50488030  0.71805101
   0.33239973  0.00215468  0.71142180
   0.33299212  0.50443679  0.72089596
   0.66714178  0.50536861  0.71920562
   0.16578443  0.24403385  0.21987828
   0.16608358  0.75964595  0.22082464
   0.50360746  0.24104126  0.21963237
   0.50290083  0.76291347  0.22051645
   0.83042391  0.24274612  0.22330093
   0.82994761  0.76101018  0.22336433
   0.16721926  0.75757719  0.54982455
   0.50330804  0.24132956  0.54974099
   0.50353196  0.76439204  0.55032258