unknown system                          
           1
    11.636000    0.000000    0.000000
     0.000000    7.905000    0.000000
     0.000000    0.000000   11.636000
   O    La   Ti   Li
    54    10    18     6
Direct configuration=     1
   0.00157353  0.26018576  0.23114533
   0.16355051  0.00029381  0.23266922
   0.15832841  0.27226416  0.05146377
   0.00191690  0.74104377  0.22924481
   0.17893967  0.49998876  0.21141357
   0.16097789  0.72407561  0.05141639
   0.33367071  0.23967020  0.21988865
   0.50190886  0.00054934  0.21594554
   0.50465374  0.28812023  0.05275845
   0.33376128  0.75963883  0.22315437
   0.47675783  0.50014018  0.22162341
   0.50235377  0.71067327  0.05244104
   0.84382843  0.00128393  0.21573006
   0.84479330  0.25249449  0.05189471
   0.66835273  0.70731530  0.21464914
   0.84944351  0.50150506  0.20989906
   0.84418922  0.75041770  0.05189829
   0.00272066  0.24900116  0.56112112
   0.17531822  0.00140631  0.54975352
   0.16635053  0.29742294  0.38648109
   0.00247418  0.75511683  0.56032795
   0.15807211  0.50123755  0.57587882
   0.16588276  0.70404899  0.38656165
   0.33496363  0.27637752  0.54565149
   0.48542256  0.00154918  0.54931724
   0.50739182  0.28238868  0.38451236
   0.33472427  0.72744135  0.54736378
   0.50096596  0.50153355  0.57008641
   0.50742916  0.71949900  0.38470873
   0.66713335  0.28189792  0.55736567
   0.83954935  0.00229498  0.55870638
   0.82970621  0.27436879  0.38562819
   0.66754322  0.72277043  0.55686870
   0.85003043  0.50243094  0.54421635
   0.83004155  0.72991003  0.38507660
   0.00058956  0.27319466  0.87465099
   0.19953205  0.00073841  0.89170835
   0.19242610  0.23856069  0.71975513
   0.00244282  0.72578750  0.87734153
   0.16581016  0.49679012  0.86956465
   0.18890692  0.76168590  0.72018863
   0.33611741  0.27697070  0.90309283
   0.48119506  0.00086148  0.90007630
   0.48046501  0.23961840  0.71990954
   0.33512966  0.71221039  0.89470835
   0.51795375  0.49942585  0.86631151
   0.48328919  0.76160330  0.72009706
   0.66668186  0.24227082  0.88910365
   0.83455166  0.00121015  0.89007357
   0.83001674  0.29376637  0.71853404
   0.66612249  0.75784805  0.88958634
   0.82311884  0.50108050  0.90113560
   0.83099977  0.71196866  0.71886612
   0.66887803  0.29533344  0.21531959
   0.99616626  0.50277479  0.04866348
   0.33282925  0.50230042  0.05497174
   0.66827238  0.50194296  0.04698123
   0.99470635  0.50089533  0.38089872
   0.33731527  0.50116067  0.37870887
   0.66832066  0.50120690  0.38483415
   0.99716600  0.50409268  0.71179557
   0.33252496  0.00155649  0.70510510
   0.33308624  0.50383807  0.71462436
   0.66729724  0.50474510  0.71278520
   0.16597501  0.24354536  0.21369999
   0.16622428  0.75903819  0.21457858
   0.50376441  0.24057577  0.21338964
   0.50310449  0.76231474  0.21404949
   0.83058040  0.24240067  0.21670316
   0.83014072  0.76066794  0.21700794
   0.16738664  0.75725022  0.54341587
   0.50348349  0.24044155  0.54341460
   0.50374240  0.76363776  0.54396556
   0.83058170  0.23884403  0.54808322
   0.83087284  0.76628810  0.54757612
   0.16306097  0.24835417  0.88165832
   0.16636219  0.76608610  0.88449385
   0.50104531  0.24980624  0.88161577
   0.49863274  0.76057037  0.88420495
   0.83440731  0.24186115  0.87697917
   0.83538185  0.76232643  0.87797845
   0.16764689  0.24727124  0.54316291
   0.33624442  0.04703255  0.98853246
   0.00221103  0.00164483  0.27655411
   0.33319230  0.00068091  0.27045348
   0.88496468  0.00209657  0.05017187
   0.00494797  0.00239240  0.59575560
   0.66256809  0.00101045  0.93403103
Direct configuration=     2
   0.00157239  0.26018569  0.23115191
   0.16355020  0.00029324  0.23267454
   0.15832675  0.27226207  0.05146935
   0.00191554  0.74104391  0.22925009
   0.17894064  0.49998826  0.21142027
   0.16097649  0.72407607  0.05142149
   0.33367002  0.23967245  0.21989403
   0.50191050  0.00055009  0.21595296
   0.50465324  0.28811945  0.05276168
   0.33376076  0.75963623  0.22315840
   0.47675730  0.50014057  0.22162855
   0.50235266  0.71067402  0.05244525
   0.84382745  0.00128446  0.21573653
   0.84479167  0.25249267  0.05189906
   0.66835394  0.70731460  0.21465436
   0.84944379  0.50150484  0.20990292
   0.84418986  0.75041860  0.05190291
   0.00271976  0.24900257  0.56112678
   0.17531792  0.00140636  0.54975950
   0.16634996  0.29742076  0.38648621
   0.00247382  0.75511735  0.56033145
   0.15807264  0.50123770  0.57588398
   0.16588319  0.70404906  0.38656612
   0.33496347  0.27637941  0.54565872
   0.48542362  0.00155006  0.54932100
   0.50739072  0.28239018  0.38451841
   0.33472517  0.72744229  0.54737021
   0.50096600  0.50153405  0.57009218
   0.50742921  0.71949897  0.38471392
   0.66713345  0.28189651  0.55737030
   0.83954940  0.00229530  0.55871019
   0.82970738  0.27436912  0.38563333
   0.66754309  0.72277275  0.55687309
   0.85003052  0.50243137  0.54422144
   0.83004138  0.72991018  0.38508107
   0.00058862  0.27319236  0.87465530
   0.19953125  0.00073859  0.89171283
   0.19242422  0.23856350  0.71976085
   0.00244167  0.72578899  0.87734734
   0.16581097  0.49679080  0.86957257
   0.18890510  0.76168372  0.72019450
   0.33611622  0.27696985  0.90309822
   0.48119537  0.00086151  0.90008282
   0.48046322  0.23962016  0.71991641
   0.33512942  0.71221167  0.89471221
   0.51795115  0.49942669  0.86631698
   0.48328958  0.76160216  0.72010190
   0.66668156  0.24227143  0.88910701
   0.83455167  0.00120959  0.89007562
   0.83001709  0.29376608  0.71853922
   0.66612197  0.75784939  0.88959076
   0.82311885  0.50108079  0.90113851
   0.83100014  0.71197066  0.71887089
   0.66887869  0.29533354  0.21532533
   0.99616596  0.50277459  0.04866822
   0.33282871  0.50230081  0.05497668
   0.66827170  0.50194252  0.04698669
   0.99470611  0.50089519  0.38090351
   0.33731451  0.50116131  0.37871425
   0.66832035  0.50120698  0.38483945
   0.99716582  0.50409359  0.71180087
   0.33252367  0.00155537  0.70511119
   0.33308546  0.50383869  0.71462976
   0.66729732  0.50474581  0.71279043
   0.16597272  0.24354352  0.21370601
   0.16622358  0.75903929  0.21458444
   0.50376378  0.24057579  0.21339424
   0.50310535  0.76231561  0.21405696
   0.83058029  0.24240097  0.21670851
   0.83014065  0.76066913  0.21701283
   0.16738677  0.75725047  0.54342086
   0.50348424  0.24044124  0.54341966
   0.50374334  0.76363938  0.54397070
   0.83058228  0.23884344  0.54808772
   0.83087271  0.76628865  0.54757983
   0.16305918  0.24835290  0.88166383
   0.16636129  0.76608774  0.88449966
   0.50104524  0.24980470  0.88162180
   0.49863275  0.76057229  0.88421062
   0.83440666  0.24186123  0.87698378
   0.83538168  0.76232617  0.87798297
   0.16764613  0.24726780  0.54316768
   0.33624409  0.04703091  0.98853978
   0.00221027  0.00164237  0.27656144
   0.33319242  0.00068089  0.27046014
   0.88496403  0.00209930  0.05017799
   0.00494697  0.00239238  0.59576093
   0.66256702  0.00100860  0.93403461
Direct configuration=     3
   0.00157120  0.26018570  0.23115868
   0.16354992  0.00029266  0.23267994
   0.15832514  0.27226007  0.05147510
   0.00191414  0.74104396  0.22925551
   0.17894177  0.49998768  0.21142709
   0.16097513  0.72407645  0.05142678
   0.33366951  0.23967495  0.21989968
   0.50191219  0.00055095  0.21596047
   0.50465270  0.28811877  0.05276518
   0.33376044  0.75963342  0.22316256
   0.47675664  0.50014094  0.22163392
   0.50235149  0.71067477  0.05244966
   0.84382649  0.00128506  0.21574317
   0.84479001  0.25249095  0.05190355
   0.66835505  0.70731384  0.21465963
   0.84944418  0.50150459  0.20990703
   0.84419054  0.75041946  0.05190769
   0.00271876  0.24900408  0.56113252
   0.17531759  0.00140644  0.54976560
   0.16634939  0.29741862  0.38649133
   0.00247344  0.75511776  0.56033508
   0.15807318  0.50123784  0.57588941
   0.16588369  0.70404915  0.38657064
   0.33496336  0.27638144  0.54566606
   0.48542475  0.00155094  0.54932479
   0.50738961  0.28239174  0.38452434
   0.33472611  0.72744317  0.54737682
   0.50096596  0.50153453  0.57009809
   0.50742921  0.71949885  0.38471903
   0.66713362  0.28189510  0.55737499
   0.83954945  0.00229554  0.55871400
   0.82970859  0.27436953  0.38563854
   0.66754300  0.72277512  0.55687752
   0.85003062  0.50243183  0.54422675
   0.83004118  0.72991025  0.38508562
   0.00058754  0.27318999  0.87465966
   0.19953042  0.00073900  0.89171734
   0.19242231  0.23856637  0.71976650
   0.00244032  0.72579050  0.87735321
   0.16581193  0.49679144  0.86958060
   0.18890332  0.76168151  0.72020023
   0.33611508  0.27696916  0.90310377
   0.48119573  0.00086162  0.90008945
   0.48046140  0.23962200  0.71992317
   0.33512920  0.71221294  0.89471619
   0.51794849  0.49942752  0.86632253
   0.48328995  0.76160095  0.72010677
   0.66668119  0.24227208  0.88911048
   0.83455166  0.00120894  0.89007774
   0.83001747  0.29376584  0.71854439
   0.66612141  0.75785067  0.88959530
   0.82311886  0.50108112  0.90114171
   0.83100055  0.71197267  0.71887566
   0.66887926  0.29533369  0.21533119
   0.99616567  0.50277439  0.04867295
   0.33282816  0.50230121  0.05498161
   0.66827102  0.50194209  0.04699212
   0.99470588  0.50089505  0.38090829
   0.33731375  0.50116196  0.37871963
   0.66832004  0.50120707  0.38484474
   0.99716565  0.50409451  0.71180616
   0.33252240  0.00155428  0.70511726
   0.33308470  0.50383931  0.71463514
   0.66729740  0.50474651  0.71279564
   0.16597043  0.24354165  0.21371203
   0.16622282  0.75904037  0.21459032
   0.50376321  0.24057586  0.21339876
   0.50310619  0.76231659  0.21406446
   0.83058017  0.24240126  0.21671391
   0.83014062  0.76067031  0.21701779
   0.16738692  0.75725080  0.54342590
   0.50348497  0.24044087  0.54342475
   0.50374426  0.76364105  0.54397585
   0.83058285  0.23884277  0.54809232
   0.83087258  0.76628923  0.54758355
   0.16305735  0.24835159  0.88166944
   0.16636036  0.76608944  0.88450533
   0.50104519  0.24980311  0.88162768
   0.49863278  0.76057427  0.88421636
   0.83440606  0.24186125  0.87698839
   0.83538153  0.76232600  0.87798746
   0.16764540  0.24726429  0.54317249
   0.33624382  0.04702911  0.98854721
   0.00220956  0.00163965  0.27656886
   0.33319246  0.00068093  0.27046686
   0.88496337  0.00210203  0.05018404
   0.00494593  0.00239226  0.59576635
   0.66256601  0.00100659  0.93403817
Direct configuration=     4
   0.00157003  0.26018567  0.23116547
   0.16354964  0.00029209  0.23268538
   0.15832356  0.27225833  0.05148096
   0.00191283  0.74104399  0.22926089
   0.17894297  0.49998706  0.21143379
   0.16097384  0.72407658  0.05143219
   0.33366918  0.23967754  0.21990543
   0.50191380  0.00055187  0.21596801
   0.50465212  0.28811827  0.05276891
   0.33376032  0.75963058  0.22316670
   0.47675595  0.50014129  0.22163918
   0.50235026  0.71067542  0.05245425
   0.84382568  0.00128569  0.21574979
   0.84478840  0.25248926  0.05190811
   0.66835595  0.70731302  0.21466483
   0.84944459  0.50150433  0.20991115
   0.84419123  0.75042035  0.05191254
   0.00271772  0.24900563  0.56113821
   0.17531716  0.00140652  0.54977180
   0.16634883  0.29741660  0.38649644
   0.00247310  0.75511808  0.56033870
   0.15807373  0.50123799  0.57589483
   0.16588424  0.70404917  0.38657519
   0.33496324  0.27638363  0.54567330
   0.48542581  0.00155179  0.54932861
   0.50738846  0.28239346  0.38453016
   0.33472704  0.72744389  0.54738340
   0.50096584  0.50153499  0.57010387
   0.50742911  0.71949850  0.38472400
   0.66713382  0.28189381  0.55737964
   0.83954961  0.00229566  0.55871776
   0.82970986  0.27437004  0.38564380
   0.66754292  0.72277735  0.55688191
   0.85003070  0.50243235  0.54423195
   0.83004099  0.72991021  0.38509024
   0.00058634  0.27318784  0.87466397
   0.19952970  0.00073969  0.89172173
   0.19242038  0.23856936  0.71977206
   0.00243886  0.72579176  0.87735901
   0.16581295  0.49679200  0.86958859
   0.18890157  0.76167923  0.72020582
   0.33611395  0.27696874  0.90310934
   0.48119605  0.00086185  0.90009612
   0.48045949  0.23962400  0.71992980
   0.33512898  0.71221406  0.89472018
   0.51794579  0.49942837  0.86632809
   0.48329025  0.76159964  0.72011167
   0.66668077  0.24227280  0.88911398
   0.83455160  0.00120823  0.89007998
   0.83001791  0.29376570  0.71854948
   0.66612079  0.75785177  0.88959989
   0.82311890  0.50108149  0.90114495
   0.83100099  0.71197456  0.71888037
   0.66887964  0.29533390  0.21533704
   0.99616544  0.50277421  0.04867760
   0.33282760  0.50230165  0.05498649
   0.66827032  0.50194168  0.04699753
   0.99470569  0.50089494  0.38091309
   0.33731296  0.50116263  0.37872507
   0.66831972  0.50120715  0.38485003
   0.99716549  0.50409545  0.71181152
   0.33252115  0.00155320  0.70512334
   0.33308395  0.50383993  0.71464057
   0.66729748  0.50474721  0.71280089
   0.16596813  0.24353977  0.21371806
   0.16622202  0.75904138  0.21459624
   0.50376270  0.24057601  0.21340320
   0.50310703  0.76231766  0.21407198
   0.83058005  0.24240156  0.21671938
   0.83014066  0.76067145  0.21702281
   0.16738707  0.75725117  0.54343100
   0.50348567  0.24044049  0.54342990
   0.50374514  0.76364275  0.54398103
   0.83058341  0.23884206  0.54809701
   0.83087245  0.76628981  0.54758727
   0.16305549  0.24835028  0.88167514
   0.16635940  0.76609112  0.88451086
   0.50104517  0.24980149  0.88163344
   0.49863284  0.76057625  0.88422218
   0.83440548  0.24186123  0.87699303
   0.83538138  0.76232588  0.87799195
   0.16764473  0.24726075  0.54317735
   0.33624357  0.04702714  0.98855463
   0.00220889  0.00163667  0.27657629
   0.33319245  0.00068102  0.27047361
   0.88496266  0.00210478  0.05019003
   0.00494481  0.00239206  0.59577180
   0.66256510  0.00100443  0.93404170
Direct configuration=     5
   0.00156899  0.26018550  0.23117226
   0.16354941  0.00029147  0.23269076
   0.15832205  0.27225639  0.05148693
   0.00191167  0.74104415  0.22926623
   0.17894421  0.49998641  0.21144041
   0.16097264  0.72407697  0.05143768
   0.33366896  0.23968010  0.21991128
   0.50191544  0.00055275  0.21597559
   0.50465151  0.28811762  0.05277294
   0.33376037  0.75962786  0.22317082
   0.47675531  0.50014164  0.22164442
   0.50234901  0.71067634  0.05245906
   0.84382484  0.00128625  0.21575653
   0.84478678  0.25248757  0.05191271
   0.66835668  0.70731245  0.21467004
   0.84944499  0.50150412  0.20991535
   0.84419187  0.75042135  0.05191749
   0.00271667  0.24900704  0.56114387
   0.17531666  0.00140657  0.54977803
   0.16634828  0.29741433  0.38650161
   0.00247282  0.75511849  0.56034232
   0.15807431  0.50123817  0.57590030
   0.16588485  0.70404954  0.38657982
   0.33496316  0.27638562  0.54568052
   0.48542698  0.00155257  0.54933241
   0.50738735  0.28239495  0.38453591
   0.33472796  0.72744483  0.54739003
   0.50096571  0.50153546  0.57010959
   0.50742899  0.71949835  0.38472890
   0.66713404  0.28189230  0.55738429
   0.83954974  0.00229559  0.55872143
   0.82971109  0.27437037  0.38564912
   0.66754285  0.72277985  0.55688628
   0.85003067  0.50243296  0.54423720
   0.83004074  0.72991037  0.38509489
   0.00058509  0.27318539  0.87466826
   0.19952887  0.00074046  0.89172611
   0.19241831  0.23857225  0.71977770
   0.00243741  0.72579333  0.87736480
   0.16581406  0.49679238  0.86959662
   0.18889974  0.76167710  0.72021144
   0.33611286  0.27696820  0.90311495
   0.48119643  0.00086205  0.90010280
   0.48045766  0.23962596  0.71993634
   0.33512876  0.71221550  0.89472422
   0.51794304  0.49942919  0.86633373
   0.48329064  0.76159842  0.72011666
   0.66668030  0.24227346  0.88911746
   0.83455156  0.00120749  0.89008215
   0.83001837  0.29376536  0.71855467
   0.66612007  0.75785290  0.88960446
   0.82311897  0.50108189  0.90114829
   0.83100146  0.71197670  0.71888513
   0.66887986  0.29533388  0.21534299
   0.99616514  0.50277403  0.04868231
   0.33282705  0.50230208  0.05499144
   0.66826967  0.50194126  0.04700294
   0.99470545  0.50089483  0.38091784
   0.33731218  0.50116329  0.37873045
   0.66831943  0.50120722  0.38485530
   0.99716531  0.50409639  0.71181684
   0.33251991  0.00155214  0.70512942
   0.33308322  0.50384054  0.71464594
   0.66729758  0.50474789  0.71280612
   0.16596584  0.24353798  0.21372408
   0.16622116  0.75904224  0.21460220
   0.50376226  0.24057629  0.21340755
   0.50310782  0.76231869  0.21407951
   0.83057993  0.24240199  0.21672489
   0.83014076  0.76067246  0.21702786
   0.16738723  0.75725151  0.54343615
   0.50348624  0.24044014  0.54343509
   0.50374598  0.76364439  0.54398625
   0.83058396  0.23884143  0.54810172
   0.83087233  0.76629027  0.54759099
   0.16305362  0.24834908  0.88168090
   0.16635842  0.76609276  0.88451620
   0.50104517  0.24979992  0.88163906
   0.49863292  0.76057822  0.88422804
   0.83440491  0.24186123  0.87699768
   0.83538122  0.76232575  0.87799643
   0.16764410  0.24725727  0.54318224
   0.33624330  0.04702503  0.98856201
   0.00220829  0.00163344  0.27658374
   0.33319237  0.00068114  0.27048037
   0.88496191  0.00210754  0.05019599
   0.00494364  0.00239178  0.59577727
   0.66256423  0.00100213  0.93404517
Direct configuration=     6
   0.00156808  0.26018512  0.23117915
   0.16354919  0.00029084  0.23269621
   0.15832055  0.27225453  0.05149304
   0.00191069  0.74104449  0.22927162
   0.17894549  0.49998571  0.21144690
   0.16097149  0.72407727  0.05144322
   0.33366887  0.23968255  0.21991727
   0.50191704  0.00055362  0.21598326
   0.50465090  0.28811701  0.05277725
   0.33376062  0.75962531  0.22317496
   0.47675469  0.50014201  0.22164962
   0.50234773  0.71067734  0.05246408
   0.84382412  0.00128676  0.21576334
   0.84478516  0.25248575  0.05191737
   0.66835717  0.70731196  0.21467523
   0.84944538  0.50150395  0.20991968
   0.84419250  0.75042258  0.05192256
   0.00271562  0.24900834  0.56114954
   0.17531604  0.00140660  0.54978438
   0.16634773  0.29741206  0.38650687
   0.00247260  0.75511895  0.56034597
   0.15807491  0.50123837  0.57590586
   0.16588553  0.70404997  0.38658456
   0.33496308  0.27638765  0.54568771
   0.48542815  0.00155329  0.54933627
   0.50738623  0.28239645  0.38454164
   0.33472888  0.72744577  0.54739669
   0.50096553  0.50153592  0.57011525
   0.50742881  0.71949815  0.38473374
   0.66713426  0.28189076  0.55738897
   0.83954996  0.00229536  0.55872509
   0.82971234  0.27437065  0.38565455
   0.66754278  0.72278238  0.55689064
   0.85003059  0.50243366  0.54424243
   0.83004045  0.72991059  0.38509965
   0.00058381  0.27318303  0.87467254
   0.19952811  0.00074140  0.89173048
   0.19241616  0.23857517  0.71978342
   0.00243601  0.72579474  0.87737058
   0.16581519  0.49679268  0.86960475
   0.18889788  0.76167497  0.72021711
   0.33611175  0.27696784  0.90312069
   0.48119681  0.00086226  0.90010959
   0.48045577  0.23962799  0.71994277
   0.33512846  0.71221692  0.89472835
   0.51794024  0.49943005  0.86633943
   0.48329101  0.76159719  0.72012178
   0.66667979  0.24227410  0.88912099
   0.83455147  0.00120672  0.89008442
   0.83001887  0.29376501  0.71855991
   0.66611925  0.75785395  0.88960911
   0.82311908  0.50108232  0.90115168
   0.83100197  0.71197885  0.71888991
   0.66887984  0.29533381  0.21534900
   0.99616492  0.50277385  0.04868697
   0.33282648  0.50230254  0.05499636
   0.66826900  0.50194085  0.04700835
   0.99470524  0.50089473  0.38092261
   0.33731138  0.50116394  0.37873588
   0.66831913  0.50120727  0.38486059
   0.99716514  0.50409734  0.71182221
   0.33251869  0.00155111  0.70513550
   0.33308249  0.50384115  0.71465135
   0.66729768  0.50474856  0.71281138
   0.16596356  0.24353633  0.21373011
   0.16622023  0.75904295  0.21460820
   0.50376187  0.24057664  0.21341180
   0.50310859  0.76231974  0.21408703
   0.83057982  0.24240247  0.21673044
   0.83014093  0.76067340  0.21703295
   0.16738739  0.75725184  0.54344135
   0.50348669  0.24043982  0.54344030
   0.50374676  0.76364599  0.54399149
   0.83058453  0.23884080  0.54810643
   0.83087224  0.76629068  0.54759469
   0.16305172  0.24834797  0.88168675
   0.16635741  0.76609432  0.88452139
   0.50104518  0.24979837  0.88164457
   0.49863303  0.76058018  0.88423397
   0.83440436  0.24186122  0.87700235
   0.83538104  0.76232566  0.87800091
   0.16764352  0.24725384  0.54318717
   0.33624299  0.04702276  0.98856939
   0.00220774  0.00162997  0.27659122
   0.33319222  0.00068131  0.27048714
   0.88496111  0.00211029  0.05020190
   0.00494238  0.00239142  0.59578277
   0.66256344  0.00099972  0.93404864
Direct configuration=     7
   0.00156716  0.26018479  0.23118601
   0.16354903  0.00029022  0.23270163
   0.15831908  0.27225274  0.05149931
   0.00190972  0.74104476  0.22927698
   0.17894678  0.49998497  0.21145325
   0.16097039  0.72407755  0.05144889
   0.33366897  0.23968503  0.21992336
   0.50191867  0.00055454  0.21599095
   0.50465032  0.28811651  0.05278184
   0.33376108  0.75962281  0.22317910
   0.47675417  0.50014233  0.22165476
   0.50234648  0.71067833  0.05246931
   0.84382340  0.00128729  0.21577021
   0.84478359  0.25248416  0.05192208
   0.66835749  0.70731149  0.21468038
   0.84944576  0.50150378  0.20992399
   0.84419312  0.75042369  0.05192767
   0.00271450  0.24900963  0.56115521
   0.17531552  0.00140663  0.54979093
   0.16634719  0.29740977  0.38651212
   0.00247239  0.75511934  0.56034965
   0.15807555  0.50123863  0.57591148
   0.16588628  0.70405052  0.38658934
   0.33496303  0.27638949  0.54569495
   0.48542930  0.00155397  0.54934029
   0.50738516  0.28239790  0.38454721
   0.33472980  0.72744689  0.54740347
   0.50096536  0.50153637  0.57012090
   0.50742862  0.71949795  0.38473845
   0.66713453  0.28188918  0.55739369
   0.83955010  0.00229505  0.55872869
   0.82971355  0.27437098  0.38565999
   0.66754274  0.72278498  0.55689504
   0.85003037  0.50243442  0.54424768
   0.83004009  0.72991076  0.38510441
   0.00058243  0.27318075  0.87467683
   0.19952738  0.00074247  0.89173467
   0.19241413  0.23857785  0.71978906
   0.00243455  0.72579612  0.87737634
   0.16581635  0.49679301  0.86961286
   0.18889617  0.76167310  0.72022265
   0.33611067  0.27696747  0.90312641
   0.48119713  0.00086256  0.90011626
   0.48045377  0.23962985  0.71994900
   0.33512815  0.71221849  0.89473247
   0.51793749  0.49943092  0.86634515
   0.48329128  0.76159614  0.72012690
   0.66667922  0.24227486  0.88912453
   0.83455137  0.00120588  0.89008670
   0.83001936  0.29376473  0.71856504
   0.66611838  0.75785480  0.88961377
   0.82311919  0.50108282  0.90115518
   0.83100246  0.71198096  0.71889464
   0.66887967  0.29533375  0.21535504
   0.99616464  0.50277368  0.04869164
   0.33282593  0.50230301  0.05500130
   0.66826836  0.50194044  0.04701375
   0.99470499  0.50089465  0.38092734
   0.33731060  0.50116459  0.37874127
   0.66831885  0.50120731  0.38486586
   0.99716495  0.50409831  0.71182758
   0.33251750  0.00155010  0.70514162
   0.33308179  0.50384174  0.71465676
   0.66729781  0.50474923  0.71281665
   0.16596131  0.24353475  0.21373612
   0.16621927  0.75904358  0.21461421
   0.50376157  0.24057700  0.21341598
   0.50310935  0.76232087  0.21409456
   0.83057968  0.24240298  0.21673606
   0.83014114  0.76067428  0.21703811
   0.16738757  0.75725220  0.54344661
   0.50348706  0.24043944  0.54344556
   0.50374752  0.76364765  0.54399680
   0.83058505  0.23884013  0.54811121
   0.83087212  0.76629109  0.54759844
   0.16304982  0.24834677  0.88169269
   0.16635638  0.76609594  0.88452646
   0.50104519  0.24979679  0.88164994
   0.49863317  0.76058217  0.88423995
   0.83440383  0.24186113  0.87700704
   0.83538087  0.76232565  0.87800539
   0.16764301  0.24725038  0.54319218
   0.33624273  0.04702041  0.98857674
   0.00220721  0.00162627  0.27659873
   0.33319204  0.00068154  0.27049391
   0.88496025  0.00211292  0.05020768
   0.00494108  0.00239096  0.59578837
   0.66256276  0.00099720  0.93405205
Direct configuration=     8
   0.00156631  0.26018436  0.23119292
   0.16354887  0.00028960  0.23270707
   0.15831764  0.27225116  0.05150574
   0.00190887  0.74104506  0.22928236
   0.17894811  0.49998418  0.21145950
   0.16096936  0.72407762  0.05145467
   0.33366919  0.23968749  0.21992955
   0.50192022  0.00055547  0.21599864
   0.50464972  0.28811611  0.05278676
   0.33376170  0.75962037  0.22318324
   0.47675360  0.50014264  0.22165984
   0.50234521  0.71067929  0.05247477
   0.84382282  0.00128781  0.21577708
   0.84478205  0.25248254  0.05192692
   0.66835762  0.70731101  0.21468546
   0.84944619  0.50150361  0.20992839
   0.84419371  0.75042493  0.05193290
   0.00271339  0.24901092  0.56116081
   0.17531488  0.00140666  0.54979750
   0.16634666  0.29740759  0.38651742
   0.00247224  0.75511965  0.56035331
   0.15807620  0.50123893  0.57591710
   0.16588707  0.70405100  0.38659420
   0.33496293  0.27639151  0.54570205
   0.48543042  0.00155461  0.54934431
   0.50738406  0.28239946  0.38455269
   0.33473064  0.72744781  0.54741015
   0.50096510  0.50153681  0.57012645
   0.50742832  0.71949755  0.38474307
   0.66713484  0.28188771  0.55739837
   0.83955033  0.00229461  0.55873221
   0.82971479  0.27437137  0.38566548
   0.66754274  0.72278745  0.55689939
   0.85003017  0.50243526  0.54425286
   0.83003975  0.72991085  0.38510923
   0.00058099  0.27317868  0.87468107
   0.19952669  0.00074369  0.89173882
   0.19241202  0.23858070  0.71979467
   0.00243311  0.72579724  0.87738203
   0.16581756  0.49679322  0.86962094
   0.18889442  0.76167107  0.72022812
   0.33610960  0.27696742  0.90313227
   0.48119749  0.00086291  0.90012301
   0.48045177  0.23963190  0.71995508
   0.33512776  0.71221988  0.89473667
   0.51793472  0.49943180  0.86635089
   0.48329156  0.76159495  0.72013209
   0.66667861  0.24227563  0.88912811
   0.83455120  0.00120502  0.89008912
   0.83001989  0.29376455  0.71857015
   0.66611747  0.75785551  0.88961848
   0.82311931  0.50108335  0.90115877
   0.83100300  0.71198295  0.71889933
   0.66887932  0.29533370  0.21536109
   0.99616445  0.50277353  0.04869626
   0.33282534  0.50230351  0.05500621
   0.66826770  0.50194004  0.04701912
   0.99470480  0.50089457  0.38093211
   0.33730977  0.50116524  0.37874674
   0.66831856  0.50120734  0.38487115
   0.99716480  0.50409929  0.71183298
   0.33251630  0.00154911  0.70514772
   0.33308108  0.50384234  0.71466218
   0.66729792  0.50474988  0.71282195
   0.16595911  0.24353332  0.21374215
   0.16621826  0.75904404  0.21462024
   0.50376130  0.24057741  0.21342008
   0.50311005  0.76232204  0.21410207
   0.83057954  0.24240352  0.21674171
   0.83014143  0.76067512  0.21704329
   0.16738775  0.75725250  0.54345193
   0.50348729  0.24043912  0.54345082
   0.50374821  0.76364925  0.54400216
   0.83058560  0.23883947  0.54811599
   0.83087204  0.76629146  0.54760217
   0.16304791  0.24834576  0.88169871
   0.16635535  0.76609744  0.88453138
   0.50104522  0.24979529  0.88165520
   0.49863332  0.76058408  0.88424601
   0.83440332  0.24186102  0.87701175
   0.83538069  0.76232563  0.87800988
   0.16764255  0.24724702  0.54319723
   0.33624247  0.04701797  0.98858417
   0.00220670  0.00162235  0.27660631
   0.33319181  0.00068184  0.27050072
   0.88495935  0.00211544  0.05021335
   0.00493969  0.00239043  0.59579403
   0.66256218  0.00099461  0.93405548
Direct configuration=     9
   0.00156555  0.26018367  0.23119982
   0.16354877  0.00028888  0.23271237
   0.15831615  0.27224915  0.05151222
   0.00190820  0.74104562  0.22928773
   0.17894941  0.49998344  0.21146555
   0.16096833  0.72407826  0.05146056
   0.33366956  0.23968957  0.21993580
   0.50192188  0.00055633  0.21600635
   0.50464920  0.28811548  0.05279188
   0.33376248  0.75961840  0.22318733
   0.47675323  0.50014299  0.22166485
   0.50234400  0.71068067  0.05248046
   0.84382209  0.00128828  0.21578412
   0.84478054  0.25248087  0.05193166
   0.66835754  0.70731097  0.21469056
   0.84944659  0.50150349  0.20993279
   0.84419428  0.75042633  0.05193813
   0.00271227  0.24901181  0.56116645
   0.17531435  0.00140663  0.54980429
   0.16634608  0.29740494  0.38652282
   0.00247213  0.75512028  0.56035703
   0.15807680  0.50123932  0.57592278
   0.16588788  0.70405212  0.38659918
   0.33496290  0.27639289  0.54570925
   0.48543155  0.00155517  0.54934853
   0.50738316  0.28240057  0.38455812
   0.33473148  0.72744939  0.54741699
   0.50096501  0.50153726  0.57013201
   0.50742817  0.71949760  0.38474763
   0.66713514  0.28188585  0.55740313
   0.83955043  0.00229403  0.55873569
   0.82971589  0.27437145  0.38567104
   0.66754273  0.72279037  0.55690380
   0.85002979  0.50243622  0.54425810
   0.83003922  0.72991130  0.38511411
   0.00057951  0.27317613  0.87468534
   0.19952591  0.00074503  0.89174283
   0.19240998  0.23858284  0.71980045
   0.00243165  0.72579890  0.87738771
   0.16581870  0.49679329  0.86962907
   0.18889278  0.76166978  0.72023359
   0.33610860  0.27696687  0.90313814
   0.48119779  0.00086335  0.90012959
   0.48044970  0.23963337  0.71996115
   0.33512737  0.71222198  0.89474094
   0.51793205  0.49943256  0.86635666
   0.48329179  0.76159437  0.72013738
   0.66667791  0.24227620  0.88913161
   0.83455110  0.00120420  0.89009136
   0.83002036  0.29376401  0.71857539
   0.66611649  0.75785634  0.88962314
   0.82311944  0.50108386  0.90116249
   0.83100348  0.71198534  0.71890412
   0.66887878  0.29533331  0.21536723
   0.99616426  0.50277338  0.04870087
   0.33282477  0.50230403  0.05501110
   0.66826704  0.50193966  0.04702448
   0.99470459  0.50089451  0.38093686
   0.33730897  0.50116590  0.37875219
   0.66831827  0.50120737  0.38487643
   0.99716463  0.50410027  0.71183842
   0.33251515  0.00154815  0.70515385
   0.33308042  0.50384291  0.71466762
   0.66729804  0.50475053  0.71282727
   0.16595694  0.24353189  0.21374816
   0.16621723  0.75904450  0.21462627
   0.50376112  0.24057778  0.21342413
   0.50311074  0.76232331  0.21410957
   0.83057935  0.24240399  0.21674742
   0.83014171  0.76067599  0.21704854
   0.16738793  0.75725286  0.54345727
   0.50348746  0.24043870  0.54345608
   0.50374890  0.76365095  0.54400754