unknown system                          
           1
    11.636000    0.000000    0.000000
     0.000000    7.905000    0.000000
     0.000000    0.000000   11.636000
   O    La   Ti   Li
    54    10    18     6
Direct configuration=     1
   0.00193141  0.26040666  0.21220074
   0.16394816  0.00053055  0.21358554
   0.15880068  0.27316839  0.03270528
   0.00229041  0.74126189  0.21034043
   0.17947906  0.50024186  0.19292951
   0.16136570  0.72379846  0.03262032
   0.33405111  0.23984763  0.20109741
   0.50241408  0.00081182  0.19731255
   0.50513836  0.28810999  0.03394989
   0.33416701  0.75995008  0.20433926
   0.47702160  0.50037940  0.20269972
   0.50282015  0.71114436  0.03367697
   0.84418787  0.00152690  0.19703275
   0.84473900  0.25270042  0.03315111
   0.66876758  0.70735312  0.19601788
   0.84993576  0.50166714  0.19127578
   0.84434141  0.75058917  0.03317318
   0.00299175  0.24932953  0.54237167
   0.17558317  0.00155614  0.53094193
   0.16664960  0.29749067  0.36775377
   0.00275126  0.75510099  0.54166913
   0.15838145  0.50147481  0.55726503
   0.16617412  0.70444421  0.36778637
   0.33523744  0.27674891  0.52694212
   0.48554922  0.00168746  0.53051907
   0.50765521  0.28267791  0.36576367
   0.33498045  0.72739579  0.52857376
   0.50147360  0.50176269  0.55118960
   0.50772458  0.71964614  0.36593791
   0.66741327  0.28171996  0.53874496
   0.83995356  0.00232450  0.54002042
   0.83014377  0.27444807  0.36693178
   0.66780002  0.72327578  0.53820040
   0.85003452  0.50266868  0.52535909
   0.83046459  0.73019498  0.36634070
   0.00090402  0.27348128  0.85622309
   0.19973491  0.00108892  0.87320000
   0.19262683  0.23848270  0.70103244
   0.00272831  0.72610311  0.85870363
   0.16614671  0.49709767  0.85032254
   0.18924923  0.76228563  0.70144360
   0.33645353  0.27728844  0.88422538
   0.48156673  0.00118621  0.88107530
   0.48066871  0.24000199  0.70104794
   0.33542058  0.71268089  0.87599840
   0.51812933  0.49973046  0.84754615
   0.48347922  0.76169575  0.70129518
   0.66700811  0.24275895  0.86988584
   0.83471669  0.00137566  0.87132608
   0.83054608  0.29399022  0.69978380
   0.66639804  0.75791850  0.87065331
   0.82348016  0.50136554  0.88234372
   0.83131413  0.71203231  0.70013334
   0.66923022  0.29579268  0.19673303
   0.99647477  0.50316084  0.02989013
   0.33326735  0.50268285  0.03623804
   0.66864035  0.50221283  0.02833810
   0.99512710  0.50096188  0.36221448
   0.33760948  0.50130382  0.35994514
   0.66865323  0.50139922  0.36628271
   0.99744395  0.50427614  0.69309039
   0.33283382  0.00174267  0.68649426
   0.33338358  0.50409819  0.69587201
   0.66765726  0.50485439  0.69408385
   0.16631189  0.24381250  0.19492068
   0.16671289  0.75921300  0.19573051
   0.50414213  0.24082870  0.19464447
   0.50359181  0.76262176  0.19535947
   0.83090634  0.24276264  0.19802787
   0.83067373  0.76091260  0.19831932
   0.16757253  0.75731326  0.52466048
   0.50369314  0.24045878  0.52467554
   0.50390657  0.76367202  0.52525771
   0.83078793  0.23866312  0.52934513
   0.83105899  0.76621984  0.52876995
   0.16340706  0.24872585  0.86301046
   0.16658377  0.76646717  0.86561065
   0.50143666  0.25019678  0.86275190
   0.49886919  0.76080257  0.86547606
   0.83482735  0.24193107  0.85825288
   0.83559290  0.76238200  0.85915355
   0.16789634  0.24727133  0.52451728
   0.33664987  0.04748668  0.96978443
   0.00263330  0.00178188  0.25755721
   0.33360187  0.00097713  0.25175368
   0.88478145  0.00221584  0.03150711
   0.00520332  0.00246853  0.57695223
   0.66285413  0.00125716  0.91476705
Direct configuration=     2
   0.00193170  0.26040731  0.21220780
   0.16394719  0.00052993  0.21359432
   0.15879746  0.27316364  0.03271059
   0.00229148  0.74126195  0.21034653
   0.17947425  0.50024110  0.19293532
   0.16136143  0.72380305  0.03262499
   0.33404865  0.23984148  0.20110442
   0.50241207  0.00081079  0.19731861
   0.50513861  0.28810935  0.03395524
   0.33416381  0.75995474  0.20434515
   0.47702234  0.50037935  0.20270802
   0.50281852  0.71114519  0.03368191
   0.84418605  0.00152627  0.19703951
   0.84473938  0.25269828  0.03315725
   0.66876596  0.70735316  0.19602457
   0.84993464  0.50166711  0.19128164
   0.84434116  0.75058956  0.03317873
   0.00299298  0.24932724  0.54237633
   0.17558157  0.00155458  0.53094953
   0.16664897  0.29749296  0.36776084
   0.00275239  0.75509818  0.54167420
   0.15837860  0.50147343  0.55726926
   0.16617379  0.70444003  0.36779335
   0.33523509  0.27674439  0.52694876
   0.48554819  0.00168672  0.53053010
   0.50765543  0.28267779  0.36577162
   0.33497831  0.72739564  0.52858032
   0.50147730  0.50176070  0.55119501
   0.50772439  0.71964670  0.36594422
   0.66740995  0.28171905  0.53875242
   0.83995439  0.00232314  0.54002542
   0.83014171  0.27444784  0.36693976
   0.66779787  0.72327335  0.53820761
   0.85003304  0.50266582  0.52536328
   0.83046375  0.73019180  0.36634762
   0.00090531  0.27348263  0.85622996
   0.19973638  0.00108622  0.87320358
   0.19262577  0.23847946  0.70104130
   0.00272894  0.72610185  0.85870847
   0.16614515  0.49709790  0.85032979
   0.18924929  0.76228980  0.70145188
   0.33645137  0.27728440  0.88423202
   0.48156509  0.00118453  0.88108196
   0.48066942  0.24000130  0.70105710
   0.33541927  0.71268571  0.87600342
   0.51813230  0.49972853  0.84755612
   0.48347883  0.76169454  0.70130238
   0.66700770  0.24275814  0.86989427
   0.83471795  0.00137416  0.87133307
   0.83054532  0.29398707  0.69979177
   0.66639656  0.75791951  0.87066041
   0.82347926  0.50136610  0.88235225
   0.83131253  0.71203513  0.70014011
   0.66922880  0.29579333  0.19673819
   0.99647434  0.50316067  0.02989626
   0.33326554  0.50268249  0.03624446
   0.66863943  0.50221391  0.02834413
   0.99512566  0.50096229  0.36222066
   0.33760907  0.50130313  0.35995236
   0.66865171  0.50139870  0.36628847
   0.99744217  0.50427413  0.69309665
   0.33283346  0.00174448  0.68650052
   0.33338291  0.50409568  0.69587903
   0.66765611  0.50485284  0.69408996
   0.16631236  0.24381180  0.19492846
   0.16671294  0.75921113  0.19573545
   0.50413989  0.24082657  0.19465104
   0.50358875  0.76261787  0.19536374
   0.83090612  0.24276266  0.19803409
   0.83067171  0.76091185  0.19832366
   0.16757470  0.75730952  0.52466599
   0.50369036  0.24046187  0.52468341
   0.50390585  0.76367013  0.52526346
   0.83078570  0.23866301  0.52935250
   0.83105987  0.76621936  0.52877608
   0.16340820  0.24872544  0.86301572
   0.16658362  0.76646198  0.86561583
   0.50143644  0.25019819  0.86276009
   0.49886813  0.76079924  0.86548009
   0.83482732  0.24193027  0.85825852
   0.83559136  0.76237952  0.85915695
   0.16789641  0.24727075  0.52452360
   0.33664860  0.04748044  0.96979188
   0.00263163  0.00178328  0.25756575
   0.33360030  0.00097781  0.25175945
   0.88478199  0.00221601  0.03151521
   0.00520122  0.00246580  0.57695692
   0.66285481  0.00125290  0.91477377
Direct configuration=     3
   0.00193201  0.26040789  0.21221502
   0.16394616  0.00052944  0.21360321
   0.15879425  0.27315886  0.03271586
   0.00229268  0.74126193  0.21035276
   0.17946947  0.50024030  0.19294103
   0.16135714  0.72380766  0.03262963
   0.33404645  0.23983511  0.20111142
   0.50240994  0.00080986  0.19732475
   0.50513881  0.28810886  0.03396056
   0.33416073  0.75995965  0.20435110
   0.47702305  0.50037921  0.20271621
   0.50281691  0.71114593  0.03368687
   0.84418425  0.00152576  0.19704636
   0.84473983  0.25269635  0.03316330
   0.66876405  0.70735316  0.19603129
   0.84993355  0.50166703  0.19128745
   0.84434094  0.75058985  0.03318418
   0.00299424  0.24932485  0.54238105
   0.17557988  0.00155307  0.53095722
   0.16664817  0.29749525  0.36776780
   0.00275352  0.75509535  0.54167947
   0.15837558  0.50147201  0.55727353
   0.16617335  0.70443587  0.36780019
   0.33523276  0.27673977  0.52695543
   0.48554715  0.00168609  0.53054126
   0.50765568  0.28267771  0.36577937
   0.33497618  0.72739551  0.52858691
   0.50148099  0.50175871  0.55120047
   0.50772421  0.71964727  0.36595043
   0.66740682  0.28171806  0.53875992
   0.83995515  0.00232189  0.54003058
   0.83013960  0.27444756  0.36694762
   0.66779588  0.72327090  0.53821493
   0.85003154  0.50266297  0.52536763
   0.83046282  0.73018857  0.36635441
   0.00090653  0.27348408  0.85623696
   0.19973807  0.00108346  0.87320734
   0.19262467  0.23847618  0.70104984
   0.00272954  0.72610056  0.85871342
   0.16614358  0.49709858  0.85033711
   0.18924929  0.76229393  0.70145986
   0.33644898  0.27728026  0.88423896
   0.48156342  0.00118280  0.88108877
   0.48067006  0.24000049  0.70106607
   0.33541780  0.71269048  0.87600867
   0.51813529  0.49972681  0.84756621
   0.48347837  0.76169345  0.70130944
   0.66700720  0.24275713  0.86990289
   0.83471920  0.00137281  0.87134024
   0.83054459  0.29398395  0.69979938
   0.66639509  0.75792074  0.87066761
   0.82347839  0.50136656  0.88236102
   0.83131097  0.71203793  0.70014650
   0.66922713  0.29579399  0.19674345
   0.99647392  0.50316050  0.02990237
   0.33326373  0.50268213  0.03625086
   0.66863852  0.50221498  0.02835010
   0.99512421  0.50096272  0.36222678
   0.33760866  0.50130247  0.35995954
   0.66865019  0.50139819  0.36629419
   0.99744042  0.50427211  0.69310287
   0.33283310  0.00174631  0.68650674
   0.33338224  0.50409316  0.69588600
   0.66765497  0.50485127  0.69409602
   0.16631282  0.24381088  0.19493629
   0.16671297  0.75920939  0.19574032
   0.50413771  0.24082428  0.19465766
   0.50358577  0.76261404  0.19536798
   0.83090593  0.24276254  0.19804029
   0.83066967  0.76091117  0.19832806
   0.16757690  0.75730599  0.52467158
   0.50368758  0.24046487  0.52469134
   0.50390516  0.76366842  0.52526919
   0.83078335  0.23866290  0.52936002
   0.83106070  0.76621890  0.52878222
   0.16340932  0.24872473  0.86302093
   0.16658348  0.76645686  0.86562109
   0.50143626  0.25019942  0.86276825
   0.49886709  0.76079601  0.86548414
   0.83482726  0.24192931  0.85826424
   0.83558976  0.76237718  0.85916047
   0.16789661  0.24726996  0.52453000
   0.33664728  0.04747415  0.96979915
   0.00263008  0.00178464  0.25757409
   0.33359857  0.00097872  0.25176505
   0.88478248  0.00221628  0.03152311
   0.00519938  0.00246309  0.57696153
   0.66285554  0.00124878  0.91477961
Direct configuration=     4
   0.00193239  0.26040849  0.21222237
   0.16394510  0.00052904  0.21361214
   0.15879111  0.27315419  0.03272115
   0.00229408  0.74126173  0.21035905
   0.17946471  0.50023948  0.19294663
   0.16135292  0.72381205  0.03263434
   0.33404452  0.23982874  0.20111837
   0.50240783  0.00080902  0.19733087
   0.50513891  0.28810853  0.03396601
   0.33415779  0.75996456  0.20435706
   0.47702379  0.50037897  0.20272421
   0.50281527  0.71114644  0.03369193
   0.84418238  0.00152534  0.19705335
   0.84474034  0.25269472  0.03316936
   0.66876193  0.70735309  0.19603793
   0.84993244  0.50166690  0.19129317
   0.84434072  0.75058993  0.03318963
   0.00299553  0.24932253  0.54238578
   0.17557813  0.00155161  0.53096487
   0.16664726  0.29749750  0.36777486
   0.00275470  0.75509239  0.54168487
   0.15837251  0.50147054  0.55727785
   0.16617282  0.70443169  0.36780706
   0.33523046  0.27673522  0.52696207
   0.48554617  0.00168558  0.53055243
   0.50765589  0.28267765  0.36578704
   0.33497406  0.72739525  0.52859346
   0.50148451  0.50175674  0.55120597
   0.50772395  0.71964779  0.36595664
   0.66740392  0.28171697  0.53876745
   0.83995570  0.00232076  0.54003581
   0.83013747  0.27444720  0.36695543
   0.66779409  0.72326845  0.53822229
   0.85003002  0.50266015  0.52537218
   0.83046188  0.73018529  0.36636111
   0.00090761  0.27348569  0.85624398
   0.19973986  0.00108067  0.87321117
   0.19262351  0.23847308  0.70105824
   0.00273005  0.72609910  0.85871835
   0.16614211  0.49709942  0.85034447
   0.18924920  0.76229776  0.70146761
   0.33644649  0.27727628  0.88424611
   0.48156172  0.00118100  0.88109564
   0.48067065  0.23999975  0.70107504
   0.33541629  0.71269483  0.87601410
   0.51813819  0.49972520  0.84757642
   0.48347789  0.76169232  0.70131648
   0.66700663  0.24275606  0.86991167
   0.83472050  0.00137163  0.87134745
   0.83054390  0.29398085  0.69980687
   0.66639367  0.75792197  0.87067485
   0.82347760  0.50136691  0.88236993
   0.83130948  0.71204068  0.70015270
   0.66922528  0.29579467  0.19674872
   0.99647348  0.50316033  0.02990848
   0.33326191  0.50268175  0.03625725
   0.66863762  0.50221605  0.02835604
   0.99512274  0.50096316  0.36223288
   0.33760825  0.50130182  0.35996671
   0.66864867  0.50139767  0.36629989
   0.99743869  0.50427007  0.69310909
   0.33283275  0.00174816  0.68651295
   0.33338157  0.50409060  0.69589298
   0.66765384  0.50484966  0.69410207
   0.16631324  0.24380983  0.19494412
   0.16671296  0.75920774  0.19574506
   0.50413559  0.24082192  0.19466427
   0.50358284  0.76261020  0.19537217
   0.83090574  0.24276239  0.19804641
   0.83066759  0.76091048  0.19833245
   0.16757911  0.75730260  0.52467722
   0.50368481  0.24046783  0.52469928
   0.50390449  0.76366684  0.52527484
   0.83078090  0.23866284  0.52936761
   0.83106148  0.76621840  0.52878834
   0.16341041  0.24872386  0.86302607
   0.16658336  0.76645184  0.86562636
   0.50143609  0.25020055  0.86277635
   0.49886606  0.76079286  0.86548817
   0.83482716  0.24192830  0.85827002
   0.83558809  0.76237490  0.85916410
   0.16789690  0.24726904  0.52453644
   0.33664595  0.04746783  0.96980642
   0.00262869  0.00178594  0.25758235
   0.33359662  0.00097986  0.25177062
   0.88478304  0.00221664  0.03153087
   0.00519796  0.00246039  0.57696615
   0.66285621  0.00124478  0.91478466
Direct configuration=     5
   0.00193289  0.26040898  0.21222982
   0.16394399  0.00052869  0.21362105
   0.15878804  0.27314945  0.03272647
   0.00229573  0.74126148  0.21036538
   0.17946003  0.50023865  0.19295206
   0.16134881  0.72381641  0.03263908
   0.33404285  0.23982232  0.20112523
   0.50240572  0.00080816  0.19733691
   0.50513892  0.28810822  0.03397158
   0.33415501  0.75996955  0.20436298
   0.47702450  0.50037869  0.20273203
   0.50281361  0.71114694  0.03369709
   0.84418045  0.00152497  0.19706044
   0.84474089  0.25269329  0.03317541
   0.66875959  0.70735313  0.19604450
   0.84993133  0.50166673  0.19129883
   0.84434047  0.75058992  0.03319513
   0.00299689  0.24932019  0.54239051
   0.17557637  0.00155016  0.53097247
   0.16664622  0.29749957  0.36778207
   0.00275592  0.75508942  0.54169037
   0.15836937  0.50146903  0.55728222
   0.16617221  0.70442770  0.36781400
   0.33522824  0.27673059  0.52696868
   0.48554524  0.00168515  0.53056358
   0.50765609  0.28267744  0.36579472
   0.33497200  0.72739499  0.52859995
   0.50148791  0.50175480  0.55121150
   0.50772367  0.71964845  0.36596290
   0.66740125  0.28171566  0.53877497
   0.83995606  0.00231970  0.54004107
   0.83013528  0.27444662  0.36696316
   0.66779248  0.72326614  0.53822966
   0.85002848  0.50265741  0.52537693
   0.83046084  0.73018215  0.36636773
   0.00090857  0.27348720  0.85625096
   0.19974169  0.00107778  0.87321506
   0.19262226  0.23847004  0.70106660
   0.00273048  0.72609771  0.85872322
   0.16614069  0.49710030  0.85035188
   0.18924900  0.76230140  0.70147526
   0.33644398  0.27727232  0.88425347
   0.48156005  0.00117905  0.88110249
   0.48067120  0.23999897  0.70108409
   0.33541479  0.71269897  0.87601973
   0.51814100  0.49972365  0.84758674
   0.48347740  0.76169126  0.70132358
   0.66700599  0.24275481  0.86992051
   0.83472183  0.00137067  0.87135457
   0.83054324  0.29397758  0.69981439
   0.66639228  0.75792335  0.87068205
   0.82347687  0.50136712  0.88237897
   0.83130805  0.71204355  0.70015883
   0.66922328  0.29579517  0.19675401
   0.99647308  0.50316015  0.02991461
   0.33326008  0.50268136  0.03626364
   0.66863674  0.50221711  0.02836198
   0.99512129  0.50096360  0.36223900
   0.33760782  0.50130117  0.35997394
   0.66864715  0.50139715  0.36630562
   0.99743702  0.50426800  0.69311533
   0.33283240  0.00175000  0.68651917
   0.33338089  0.50408801  0.69589998
   0.66765268  0.50484802  0.69410816
   0.16631361  0.24380868  0.19495196
   0.16671288  0.75920615  0.19574969
   0.50413353  0.24081952  0.19467088
   0.50357998  0.76260635  0.19537630
   0.83090556  0.24276221  0.19805245
   0.83066549  0.76090977  0.19833682
   0.16758131  0.75729933  0.52468289
   0.50368203  0.24047079  0.52470717
   0.50390385  0.76366535  0.52528042
   0.83077838  0.23866287  0.52937523
   0.83106224  0.76621784  0.52879440
   0.16341146  0.24872291  0.86303112
   0.16658324  0.76644688  0.86563163
   0.50143592  0.25020162  0.86278438
   0.49886503  0.76078978  0.86549217
   0.83482701  0.24192724  0.85827586
   0.83558635  0.76237266  0.85916785
   0.16789727  0.24726800  0.52454289
   0.33664457  0.04746141  0.96981365
   0.00262749  0.00178719  0.25759052
   0.33359446  0.00098109  0.25177615
   0.88478370  0.00221708  0.03153850
   0.00519692  0.00245771  0.57697074
   0.66285679  0.00124093  0.91478898
Direct configuration=     6
   0.00193349  0.26040931  0.21223737
   0.16394281  0.00052847  0.21362996
   0.15878506  0.27314470  0.03273190
   0.00229751  0.74126122  0.21037177
   0.17945544  0.50023780  0.19295731
   0.16134482  0.72382071  0.03264382
   0.33404141  0.23981587  0.20113201
   0.50240362  0.00080728  0.19734288
   0.50513879  0.28810800  0.03397725
   0.33415243  0.75997458  0.20436888
   0.47702519  0.50037841  0.20273968
   0.50281191  0.71114735  0.03370232
   0.84417849  0.00152459  0.19706762
   0.84474150  0.25269203  0.03318145
   0.66875707  0.70735327  0.19605099
   0.84993019  0.50166657  0.19130441
   0.84434021  0.75058987  0.03320067
   0.00299826  0.24931782  0.54239526
   0.17557458  0.00154874  0.53097999
   0.16664508  0.29750150  0.36778933
   0.00275715  0.75508643  0.54169600
   0.15836617  0.50146751  0.55728668
   0.16617153  0.70442385  0.36782093
   0.33522613  0.27672598  0.52697527
   0.48554439  0.00168479  0.53057467
   0.50765626  0.28267715  0.36580233
   0.33497006  0.72739465  0.52860638
   0.50149113  0.50175291  0.55121707
   0.50772332  0.71964918  0.36596918
   0.66739883  0.28171416  0.53878249
   0.83995625  0.00231871  0.54004638
   0.83013303  0.27444585  0.36697079
   0.66779107  0.72326396  0.53823701
   0.85002691  0.50265476  0.52538190
   0.83045973  0.73017913  0.36637420
   0.00090932  0.27348868  0.85625788
   0.19974356  0.00107472  0.87321903
   0.19262095  0.23846711  0.70107474
   0.00273084  0.72609640  0.85872802
   0.16613936  0.49710139  0.85035931
   0.18924869  0.76230482  0.70148277
   0.33644145  0.27726847  0.88426104
   0.48155840  0.00117695  0.88110937
   0.48067168  0.23999818  0.70109311
   0.33541330  0.71270280  0.87602557
   0.51814371  0.49972227  0.84759712
   0.48347688  0.76169022  0.70133071
   0.66700529  0.24275334  0.86992943
   0.83472317  0.00136986  0.87136166
   0.83054261  0.29397421  0.69982182
   0.66639092  0.75792489  0.87068923
   0.82347620  0.50136722  0.88238809
   0.83130668  0.71204648  0.70016480
   0.66922114  0.29579554  0.19675932
   0.99647269  0.50315997  0.02992074
   0.33325823  0.50268095  0.03627002
   0.66863587  0.50221816  0.02836791
   0.99511984  0.50096406  0.36224510
   0.33760737  0.50130054  0.35998118
   0.66864563  0.50139663  0.36631134
   0.99743539  0.50426591  0.69312158
   0.33283206  0.00175186  0.68652540
   0.33338020  0.50408537  0.69590698
   0.66765152  0.50484633  0.69411426
   0.16631393  0.24380739  0.19495980
   0.16671272  0.75920466  0.19575422
   0.50413155  0.24081702  0.19467746
   0.50357719  0.76260252  0.19538037
   0.83090539  0.24276201  0.19805842
   0.83066339  0.76090906  0.19834120
   0.16758348  0.75729621  0.52468860
   0.50367926  0.24047369  0.52471505
   0.50390323  0.76366401  0.52528593
   0.83077577  0.23866294  0.52938289
   0.83106295  0.76621726  0.52880038
   0.16341247  0.24872176  0.86303614
   0.16658312  0.76644204  0.86563692
   0.50143576  0.25020254  0.86279236
   0.49886402  0.76078682  0.86549616
   0.83482682  0.24192611  0.85828179
   0.83558454  0.76237052  0.85917172
   0.16789770  0.24726681  0.52454937
   0.33664316  0.04745486  0.96982086
   0.00262647  0.00178835  0.25759861
   0.33359210  0.00098241  0.25178164
   0.88478445  0.00221761  0.03154598
   0.00519629  0.00245506  0.57697532
   0.66285730  0.00123723  0.91479257
Direct configuration=     7
   0.00193414  0.26040969  0.21224506
   0.16394157  0.00052840  0.21363903
   0.15878217  0.27314024  0.03273750
   0.00229936  0.74126076  0.21037826
   0.17945094  0.50023687  0.19296249
   0.16134095  0.72382455  0.03264860
   0.33404018  0.23980965  0.20113876
   0.50240141  0.00080636  0.19734882
   0.50513850  0.28810809  0.03398305
   0.33415001  0.75997942  0.20437481
   0.47702573  0.50037806  0.20274717
   0.50281015  0.71114736  0.03370764
   0.84417659  0.00152421  0.19707489
   0.84474216  0.25269106  0.03318758
   0.66875437  0.70735320  0.19605738
   0.84992907  0.50166639  0.19130994
   0.84433990  0.75058964  0.03320637
   0.00299963  0.24931566  0.54240005
   0.17557275  0.00154735  0.53098749
   0.16664387  0.29750359  0.36779658
   0.00275836  0.75508319  0.54170178
   0.15836292  0.50146594  0.55729126
   0.16617079  0.70441977  0.36782781
   0.33522410  0.27672165  0.52698185
   0.48554346  0.00168448  0.53058581
   0.50765628  0.28267709  0.36580985
   0.33496822  0.72739397  0.52861277
   0.50149403  0.50175106  0.55122271
   0.50772281  0.71964964  0.36597547
   0.66739666  0.28171275  0.53879007
   0.83995637  0.00231776  0.54005180
   0.83013081  0.27444509  0.36697828
   0.66778987  0.72326159  0.53824441
   0.85002538  0.50265218  0.52538715
   0.83045864  0.73017600  0.36638051
   0.00090983  0.27349040  0.85626478
   0.19974564  0.00107154  0.87322306
   0.19261962  0.23846454  0.70108256
   0.00273112  0.72609482  0.85873276
   0.16613821  0.49710270  0.85036676
   0.18924830  0.76230774  0.70149004
   0.33643895  0.27726500  0.88426886
   0.48155672  0.00117473  0.88111633
   0.48067204  0.23999761  0.70110208
   0.33541184  0.71270601  0.87603161
   0.51814632  0.49972107  0.84760764
   0.48347630  0.76168898  0.70133786
   0.66700451  0.24275182  0.86993853
   0.83472449  0.00136921  0.87136886
   0.83054202  0.29397099  0.69982910
   0.66638956  0.75792641  0.87069646
   0.82347553  0.50136721  0.88239739
   0.83130538  0.71204922  0.70017056
   0.66921888  0.29579605  0.19676461
   0.99647228  0.50315977  0.02992689
   0.33325638  0.50268051  0.03627642
   0.66863503  0.50221919  0.02837382
   0.99511836  0.50096452  0.36225117
   0.33760692  0.50129990  0.35998841
   0.66864412  0.50139610  0.36631705
   0.99743378  0.50426377  0.69312781
   0.33283171  0.00175374  0.68653163
   0.33337951  0.50408270  0.69591398
   0.66765036  0.50484461  0.69412037
   0.16631420  0.24380607  0.19496765
   0.16671249  0.75920315  0.19575868
   0.50412963  0.24081456  0.19468403
   0.50357445  0.76259862  0.19538440
   0.83090524  0.24276189  0.19806430
   0.83066130  0.76090823  0.19834556
   0.16758563  0.75729319  0.52469440
   0.50367647  0.24047662  0.52472293
   0.50390263  0.76366272  0.52529140
   0.83077321  0.23866319  0.52939059
   0.83106363  0.76621654  0.52880628
   0.16341346  0.24872052  0.86304111
   0.16658301  0.76643723  0.86564219
   0.50143561  0.25020341  0.86280030
   0.49886304  0.76078392  0.86550014
   0.83482658  0.24192500  0.85828783
   0.83558265  0.76236836  0.85917576
   0.16789820  0.24726551  0.52455592
   0.33664175  0.04744825  0.96982801
   0.00262561  0.00178945  0.25760658
   0.33358951  0.00098380  0.25178707
   0.88478525  0.00221822  0.03155335
   0.00519604  0.00245244  0.57697987
   0.66285774  0.00123373  0.91479544
Direct configuration=     8
   0.00193477  0.26040979  0.21225294
   0.16394023  0.00052838  0.21364817
   0.15877938  0.27313574  0.03274312
   0.00230127  0.74126040  0.21038486
   0.17944663  0.50023604  0.19296746
   0.16133723  0.72382835  0.03265334
   0.33403928  0.23980325  0.20114547
   0.50239914  0.00080533  0.19735472
   0.50513802  0.28810829  0.03398899
   0.33414789  0.75998443  0.20438075
   0.47702612  0.50037780  0.20275452
   0.50280829  0.71114727  0.03371310
   0.84417478  0.00152382  0.19708223
   0.84474294  0.25269007  0.03319365
   0.66875136  0.70735319  0.19606376
   0.84992799  0.50166623  0.19131543
   0.84433964  0.75058956  0.03321207
   0.00300086  0.24931334  0.54240492
   0.17557080  0.00154597  0.53099491
   0.16664254  0.29750564  0.36780375
   0.00275942  0.75508009  0.54170774
   0.15835963  0.50146438  0.55729604
   0.16616998  0.70441578  0.36783454
   0.33522228  0.27671745  0.52698838
   0.48554261  0.00168423  0.53059684
   0.50765629  0.28267698  0.36581725
   0.33496660  0.72739307  0.52861907
   0.50149670  0.50174930  0.55122842
   0.50772227  0.71965018  0.36598170
   0.66739472  0.28171120  0.53879767
   0.83995644  0.00231683  0.54005730
   0.83012851  0.27444415  0.36698566
   0.66778885  0.72325930  0.53825182
   0.85002387  0.50264970  0.52539264
   0.83045745  0.73017300  0.36638672
   0.00091012  0.27349211  0.85627161
   0.19974786  0.00106835  0.87322732
   0.19261823  0.23846216  0.70109003
   0.00273130  0.72609328  0.85873742
   0.16613717  0.49710444  0.85037421
   0.18924778  0.76231033  0.70149705
   0.33643631  0.27726168  0.88427702
   0.48155505  0.00117241  0.88112344
   0.48067233  0.23999709  0.70111077
   0.33541027  0.71270875  0.87603796
   0.51814881  0.49972021  0.84761816
   0.48347570  0.76168768  0.70134481
   0.66700373  0.24274986  0.86994772
   0.83472579  0.00136870  0.87137612
   0.83054147  0.29396779  0.69983609
   0.66638825  0.75792827  0.87070368
   0.82347492  0.50136715  0.88240677
   0.83130416  0.71205190  0.70017597
   0.66921640  0.29579646  0.19676999
   0.99647193  0.50315959  0.02993302
   0.33325451  0.50268010  0.03628277
   0.66863417  0.50222024  0.02837973
   0.99511691  0.50096500  0.36225725
   0.33760645  0.50129928  0.35999569
   0.66864258  0.50139557  0.36632277
   0.99743221  0.50426164  0.69313406
   0.33283136  0.00175561  0.68653786
   0.33337881  0.50408002  0.69592098
   0.66764920  0.50484287  0.69412645
   0.16631439  0.24380457  0.19497551
   0.16671215  0.75920177  0.19576302
   0.50412782  0.24081198  0.19469058
   0.50357181  0.76259478  0.19538840
   0.83090510  0.24276169  0.19807015
   0.83065921  0.76090744  0.19834995
   0.16758774  0.75729033  0.52470026
   0.50367370  0.24047946  0.52473080
   0.50390207  0.76366160  0.52529684
   0.83077067  0.23866349  0.52939835
   0.83106428  0.76621582  0.52881211
   0.16341441  0.24871901  0.86304610
   0.16658289  0.76643255  0.86564750
   0.50143547  0.25020406  0.86280824
   0.49886211  0.76078116  0.86550412
   0.83482632  0.24192374  0.85829400
   0.83558080  0.76236633  0.85917997
   0.16789874  0.24726408  0.52456243
   0.33664022  0.04744144  0.96983495
   0.00262494  0.00179046  0.25761437
   0.33358678  0.00098522  0.25179238
   0.88478605  0.00221890  0.03156056
   0.00519610  0.00244987  0.57698432
   0.66285813  0.00123042  0.91479755
Direct configuration=     9
   0.00193531  0.26040989  0.21226093
   0.16393886  0.00052846  0.21365733
   0.15877672  0.27313145  0.03274888
   0.00230316  0.74125988  0.21039153
   0.17944248  0.50023518  0.19297231
   0.16133367  0.72383181  0.03265823
   0.33403868  0.23979710  0.20115212
   0.50239682  0.00080433  0.19736056
   0.50513737  0.28810870  0.03399509
   0.33414598  0.75998924  0.20438669
   0.47702639  0.50037747  0.20276168
   0.50280637  0.71114688  0.03371869
   0.84417302  0.00152351  0.19708961
   0.84474377  0.25268936  0.03319977
   0.66874819  0.70735306  0.19607004
   0.84992688  0.50166605  0.19132085
   0.84433934  0.75058930  0.03321785
   0.00300199  0.24931112  0.54240983
   0.17556884  0.00154464  0.53100228
   0.16664118  0.29750769  0.36781084
   0.00276035  0.75507687  0.54171383
   0.15835637  0.50146279  0.55730097
   0.16616912  0.70441177  0.36784115
   0.33522061  0.27671343  0.52699493
   0.48554178  0.00168406  0.53060782
   0.50765618  0.28267695  0.36582447
   0.33496515  0.72739195  0.52862535
   0.50149905  0.50174756  0.55123419
   0.50772158  0.71965060  0.36598789
   0.66739309  0.28170963  0.53880531
   0.83995638  0.00231596  0.54006285
   0.83012620  0.27444320  0.36699288
   0.66778806  0.72325697  0.53825923
   0.85002235  0.50264728  0.52539842
   0.83045624  0.73016994  0.36639278
   0.00091015  0.27349398  0.85627839
   0.19975017  0.00106526  0.87323165
   0.19261684  0.23846006  0.70109714
   0.00273124  0.72609157  0.85874202
   0.16613630  0.49710633  0.85038165
   0.18924721  0.76231247  0.70150366
   0.33643370  0.27725864  0.88428537
   0.48155341  0.00117012  0.88113055
   0.48067250  0.23999674  0.70111929
   0.33540876  0.71271092  0.87604450
   0.51815116  0.49971952  0.84762874
   0.48347506  0.76168621  0.70135163
   0.66700290  0.24274781  0.86995702
   0.83472705  0.00136839  0.87138343
   0.83054094  0.29396476  0.69984283
   0.66638704  0.75793016  0.87071089
   0.82347436  0.50136696  0.88241619
   0.83130299  0.71205437  0.70018107
   0.66921382  0.29579692  0.19677538
   0.99647148  0.50315938  0.02993917
   0.33325266  0.50267962  0.03628917
   0.66863337  0.50222124  0.02838562
   0.99511536  0.50096547  0.36226327
   0.33760600  0.50129866  0.36000288
   0.66864108  0.50139502  0.36632846
   0.99743060  0.50425946  0.69314030
   0.33283102  0.00175753  0.68654408
   0.33337811  0.50407730  0.69592797
   0.66764808  0.50484108  0.69413253
   0.16631453  0.24380298  0.19498335
   0.16671172  0.75920045  0.19576724
   0.50412609  0.24080934  0.19469712
   0.50356923  0.76259096  0.19539234
   0.83090497  0.24276153  0.19807593
   0.83065712  0.76090658  0.19835435
   0.16758981  0.75728765  0.52470622
   0.50367095  0.24048222  0.52473868
   0.50390155  0.76366064  0.52530224