unknown system                          
           1
    11.636000    0.000000    0.000000
     0.000000    7.905000    0.000000
     0.000000    0.000000   11.636000
   O    La   Ti   Li
    54    10    18     6
Direct configuration=     1
   0.00178995  0.26021320  0.21934059
   0.16382354  0.00053062  0.22077664
   0.15843851  0.27240309  0.03950106
   0.00218001  0.74145273  0.21734027
   0.17908467  0.50023195  0.19949676
   0.16107097  0.72451263  0.03937496
   0.33387697  0.23995600  0.20783838
   0.50217671  0.00084180  0.20390818
   0.50490145  0.28823590  0.04062481
   0.33400398  0.75990301  0.21076342
   0.47694952  0.50029894  0.20936729
   0.50262198  0.71096814  0.04037644
   0.84404884  0.00152537  0.20395443
   0.84514255  0.25254147  0.03993061
   0.66856307  0.70755549  0.20263399
   0.84979740  0.50175992  0.19774147
   0.84447610  0.75098907  0.03991370
   0.00291113  0.24914225  0.54933995
   0.17548345  0.00160217  0.53817707
   0.16657829  0.29757971  0.37461578
   0.00266650  0.75543383  0.54837596
   0.15832222  0.50160276  0.56389120
   0.16627350  0.70449598  0.37455714
   0.33513187  0.27650404  0.53382269
   0.48575507  0.00187538  0.53724641
   0.50749901  0.28275391  0.37240842
   0.33497246  0.72788585  0.53556286
   0.50100447  0.50175873  0.55797346
   0.50738215  0.71966452  0.37258458
   0.66732533  0.28233177  0.54523236
   0.83967340  0.00255187  0.54644627
   0.82997440  0.27496779  0.37365924
   0.66771308  0.72285273  0.54455336
   0.85041284  0.50272249  0.53238485
   0.83030549  0.72992074  0.37302283
   0.00083238  0.27367660  0.86249446
   0.19969204  0.00108232  0.87950176
   0.19262628  0.23916623  0.70780115
   0.00256249  0.72609173  0.86527696
   0.16621149  0.49718695  0.85792767
   0.18912903  0.76168945  0.70822821
   0.33640365  0.27716131  0.89097180
   0.48151119  0.00120116  0.88826089
   0.48083635  0.23985265  0.70778474
   0.33542236  0.71278391  0.88272037
   0.51820841  0.49973591  0.85426766
   0.48369508  0.76192333  0.70803958
   0.66693767  0.24250655  0.87714657
   0.83483348  0.00162421  0.87812861
   0.83014686  0.29417420  0.70655748
   0.66637294  0.75828744  0.87771557
   0.82336859  0.50136852  0.88936310
   0.83104107  0.71226860  0.70687123
   0.66913390  0.29554982  0.20332864
   0.99634265  0.50314929  0.03630468
   0.33295819  0.50254093  0.04276265
   0.66835348  0.50215389  0.03493074
   0.99497802  0.50106973  0.36869855
   0.33741804  0.50128422  0.36658509
   0.66845504  0.50141884  0.37262432
   0.99726938  0.50446529  0.69972491
   0.33268882  0.00176067  0.69301737
   0.33326394  0.50413823  0.70260050
   0.66747816  0.50506955  0.70055724
   0.16613463  0.24367105  0.20170823
   0.16648543  0.75930837  0.20237079
   0.50397871  0.24096657  0.20109694
   0.50329445  0.76270300  0.20196492
   0.83091379  0.24257307  0.20468248
   0.83042636  0.76088467  0.20492900
   0.16760325  0.75715885  0.53143942
   0.50358272  0.24091861  0.53120171
   0.50393229  0.76408659  0.53185288
   0.83071047  0.23915423  0.53607377
   0.83106783  0.76651007  0.53540275
   0.16331753  0.24849217  0.86969749
   0.16637339  0.76633102  0.87237973
   0.50139017  0.25005658  0.86922858
   0.49881222  0.76101408  0.87215248
   0.83464332  0.24227467  0.86500543
   0.83520344  0.76289513  0.86593110
   0.16770803  0.24721727  0.53136699
   0.33656010  0.04703402  0.97643594
   0.00245811  0.00146025  0.26488916
   0.33338312  0.00101530  0.25865425
   0.88570497  0.00246043  0.03811300
   0.00503203  0.00243515  0.58398800
   0.66260118  0.00152270  0.92390834
Direct configuration=     2
   0.00178976  0.26021223  0.21934886
   0.16382410  0.00053057  0.22078478
   0.15844081  0.27240351  0.03950973
   0.00218114  0.74145351  0.21735112
   0.17908509  0.50023304  0.19950178
   0.16107288  0.72451147  0.03938272
   0.33387787  0.23995691  0.20784380
   0.50217936  0.00083987  0.20391630
   0.50490053  0.28823651  0.04063061
   0.33400364  0.75990267  0.21077065
   0.47694934  0.50029983  0.20937331
   0.50262206  0.71096727  0.04038248
   0.84405124  0.00152594  0.20396130
   0.84514388  0.25254352  0.03993930
   0.66856534  0.70755372  0.20264382
   0.84979885  0.50176108  0.19775123
   0.84447752  0.75099092  0.03992144
   0.00291215  0.24914616  0.54934843
   0.17548413  0.00160516  0.53818480
   0.16657880  0.29758119  0.37462334
   0.00266866  0.75543374  0.54838208
   0.15832147  0.50160176  0.56389959
   0.16627519  0.70449600  0.37456687
   0.33513121  0.27650556  0.53383106
   0.48575459  0.00187651  0.53725254
   0.50750031  0.28275275  0.37241629
   0.33497268  0.72788580  0.53557108
   0.50100313  0.50175793  0.55797787
   0.50738232  0.71966647  0.37259421
   0.66732464  0.28233164  0.54524322
   0.83967354  0.00255416  0.54645613
   0.82997507  0.27496952  0.37366937
   0.66771261  0.72285332  0.54455929
   0.85041230  0.50272321  0.53239346
   0.83030583  0.72992280  0.37303248
   0.00083435  0.27367911  0.86250274
   0.19969272  0.00108520  0.87950956
   0.19262714  0.23916691  0.70780715
   0.00256428  0.72609285  0.86528410
   0.16621174  0.49718627  0.85793416
   0.18912822  0.76168909  0.70823462
   0.33640291  0.27716490  0.89097878
   0.48150959  0.00120178  0.88826880
   0.48083749  0.23985529  0.70779153
   0.33542266  0.71278143  0.88272748
   0.51821040  0.49973592  0.85427644
   0.48369957  0.76192109  0.70804667
   0.66693803  0.24250538  0.87715650
   0.83483465  0.00162554  0.87813589
   0.83014726  0.29417755  0.70656770
   0.66637419  0.75828989  0.87772244
   0.82336816  0.50137084  0.88937022
   0.83104175  0.71226836  0.70687911
   0.66913598  0.29555176  0.20333619
   0.99634313  0.50315108  0.03631311
   0.33295921  0.50254207  0.04277018
   0.66835358  0.50215547  0.03493892
   0.99497832  0.50107041  0.36870697
   0.33741889  0.50128441  0.36659278
   0.66845588  0.50142029  0.37263268
   0.99727028  0.50446652  0.69973372
   0.33268881  0.00176098  0.69302481
   0.33326437  0.50413779  0.70260873
   0.66747927  0.50507100  0.70056559
   0.16613457  0.24367197  0.20171681
   0.16648704  0.75930939  0.20238331
   0.50397954  0.24096395  0.20110496
   0.50329619  0.76270161  0.20197557
   0.83091309  0.24257362  0.20469267
   0.83042788  0.76088490  0.20493778
   0.16760312  0.75716508  0.53144903
   0.50358288  0.24091883  0.53120766
   0.50393203  0.76408833  0.53186275
   0.83070973  0.23915494  0.53608104
   0.83106658  0.76651209  0.53540987
   0.16331563  0.24849217  0.86970324
   0.16637299  0.76633088  0.87239026
   0.50138964  0.25005625  0.86923457
   0.49881215  0.76101540  0.87216169
   0.83464254  0.24227538  0.86501546
   0.83520322  0.76289841  0.86593802
   0.16770852  0.24722079  0.53137285
   0.33655894  0.04703421  0.97644210
   0.00245807  0.00146171  0.26489515
   0.33338599  0.00101428  0.25865942
   0.88571469  0.00245655  0.03812097
   0.00503063  0.00243720  0.58399483
   0.66260320  0.00152537  0.92392302
Direct configuration=     3
   0.00178963  0.26021139  0.21935714
   0.16382463  0.00053058  0.22079299
   0.15844309  0.27240398  0.03951818
   0.00218235  0.74145415  0.21736197
   0.17908567  0.50023425  0.19950686
   0.16107484  0.72451025  0.03939036
   0.33387852  0.23995785  0.20784923
   0.50218210  0.00083799  0.20392442
   0.50489966  0.28823725  0.04063647
   0.33400306  0.75990225  0.21077806
   0.47694912  0.50030086  0.20937957
   0.50262223  0.71096641  0.04038843
   0.84405361  0.00152652  0.20396810
   0.84514531  0.25254559  0.03994782
   0.66856765  0.70755188  0.20265364
   0.84980033  0.50176229  0.19776111
   0.84447891  0.75099267  0.03992898
   0.00291311  0.24915008  0.54935683
   0.17548483  0.00160799  0.53819253
   0.16657928  0.29758251  0.37463083
   0.00267077  0.75543373  0.54838821
   0.15832055  0.50160074  0.56390801
   0.16627681  0.70449597  0.37457648
   0.33513053  0.27650696  0.53383946
   0.48575396  0.00187763  0.53725879
   0.50750165  0.28275150  0.37242408
   0.33497279  0.72788592  0.53557937
   0.50100191  0.50175709  0.55798245
   0.50738260  0.71966844  0.37260388
   0.66732412  0.28233156  0.54525391
   0.83967370  0.00255646  0.54646609
   0.82997571  0.27497125  0.37367946
   0.66771229  0.72285390  0.54456527
   0.85041170  0.50272392  0.53240214
   0.83030612  0.72992473  0.37304218
   0.00083642  0.27368160  0.86251093
   0.19969338  0.00108793  0.87951727
   0.19262815  0.23916730  0.70781306
   0.00256625  0.72609398  0.86529124
   0.16621188  0.49718553  0.85794082
   0.18912754  0.76168900  0.70824108
   0.33640205  0.27716837  0.89098576
   0.48150794  0.00120235  0.88827665
   0.48083850  0.23985763  0.70779807
   0.33542279  0.71277909  0.88273470
   0.51821251  0.49973596  0.85428517
   0.48370389  0.76191912  0.70805359
   0.66693840  0.24250428  0.87716640
   0.83483583  0.00162670  0.87814299
   0.83014756  0.29418085  0.70657766
   0.66637537  0.75829230  0.87772932
   0.82336765  0.50137319  0.88937750
   0.83104242  0.71226822  0.70688689
   0.66913804  0.29555378  0.20334368
   0.99634359  0.50315287  0.03632152
   0.33296025  0.50254323  0.04277768
   0.66835368  0.50215706  0.03494704
   0.99497862  0.50107111  0.36871534
   0.33741974  0.50128461  0.36660043
   0.66845670  0.50142175  0.37264101
   0.99727116  0.50446777  0.69974250
   0.33268882  0.00176132  0.69303220
   0.33326481  0.50413736  0.70261691
   0.66748035  0.50507246  0.70057390
   0.16613456  0.24367291  0.20172534
   0.16648869  0.75931041  0.20239597
   0.50398036  0.24096121  0.20111312
   0.50329787  0.76270028  0.20198609
   0.83091232  0.24257425  0.20470288
   0.83042944  0.76088516  0.20494660
   0.16760308  0.75717143  0.53145874
   0.50358304  0.24091907  0.53121372
   0.50393176  0.76409005  0.53187272
   0.83070898  0.23915565  0.53608829
   0.83106532  0.76651404  0.53541695
   0.16331373  0.24849221  0.86970903
   0.16637256  0.76633067  0.87240082
   0.50138908  0.25005591  0.86924060
   0.49881204  0.76101662  0.87217089
   0.83464174  0.24227616  0.86502547
   0.83520298  0.76290164  0.86594494
   0.16770906  0.24722436  0.53137853
   0.33655789  0.04703461  0.97644829
   0.00245784  0.00146320  0.26490114
   0.33338907  0.00101313  0.25866452
   0.88572443  0.00245256  0.03812923
   0.00502917  0.00243947  0.58400157
   0.66260509  0.00152822  0.92393645
Direct configuration=     4
   0.00178956  0.26021059  0.21936545
   0.16382513  0.00053069  0.22080140
   0.15844537  0.27240457  0.03952662
   0.00218362  0.74145474  0.21737289
   0.17908632  0.50023554  0.19951188
   0.16107687  0.72450883  0.03939802
   0.33387892  0.23995869  0.20785465
   0.50218493  0.00083619  0.20393264
   0.50489884  0.28823811  0.04064265
   0.33400224  0.75990181  0.21078565
   0.47694895  0.50030200  0.20938582
   0.50262249  0.71096549  0.04039449
   0.84405599  0.00152716  0.20397490
   0.84514685  0.25254753  0.03995631
   0.66857001  0.70754992  0.20266355
   0.84980180  0.50176353  0.19777099
   0.84448026  0.75099446  0.03993647
   0.00291400  0.24915393  0.54936519
   0.17548542  0.00161069  0.53820023
   0.16657974  0.29758380  0.37463827
   0.00267281  0.75543387  0.54839437
   0.15831948  0.50159968  0.56391640
   0.16627839  0.70449572  0.37458609
   0.33512981  0.27650834  0.53384777
   0.48575320  0.00187876  0.53726513
   0.50750298  0.28275017  0.37243179
   0.33497276  0.72788611  0.53558765
   0.50100081  0.50175621  0.55798698
   0.50738294  0.71967038  0.37261364
   0.66732382  0.28233153  0.54526453
   0.83967396  0.00255881  0.54647625
   0.82997636  0.27497294  0.37368966
   0.66771218  0.72285443  0.54457131
   0.85041105  0.50272462  0.53241067
   0.83030642  0.72992659  0.37305210
   0.00083854  0.27368416  0.86251914
   0.19969407  0.00109053  0.87952507
   0.19262926  0.23916753  0.70781896
   0.00256840  0.72609497  0.86529846
   0.16621186  0.49718483  0.85794756
   0.18912690  0.76168902  0.70824768
   0.33640101  0.27717177  0.89099285
   0.48150621  0.00120291  0.88828465
   0.48083945  0.23985978  0.70780447
   0.33542270  0.71277673  0.88274211
   0.51821472  0.49973608  0.85429393
   0.48370816  0.76191731  0.70806046
   0.66693882  0.24250316  0.87717644
   0.83483706  0.00162775  0.87815009
   0.83014781  0.29418415  0.70658750
   0.66637651  0.75829474  0.87773634
   0.82336710  0.50137553  0.88938485
   0.83104315  0.71226819  0.70689467
   0.66914009  0.29555589  0.20335115
   0.99634405  0.50315467  0.03632992
   0.33296130  0.50254442  0.04278517
   0.66835378  0.50215864  0.03495515
   0.99497893  0.50107185  0.36872371
   0.33742061  0.50128481  0.36660809
   0.66845753  0.50142322  0.37264934
   0.99727204  0.50446903  0.69975129
   0.33268882  0.00176168  0.69303958
   0.33326525  0.50413692  0.70262506
   0.66748141  0.50507391  0.70058222
   0.16613459  0.24367386  0.20173381
   0.16649038  0.75931139  0.20240875
   0.50398117  0.24095840  0.20112139
   0.50329948  0.76269899  0.20199646
   0.83091151  0.24257501  0.20471309
   0.83043106  0.76088543  0.20495542
   0.16760313  0.75717786  0.53146855
   0.50358319  0.24091933  0.53121990
   0.50393148  0.76409174  0.53188278
   0.83070822  0.23915639  0.53609550
   0.83106405  0.76651589  0.53542399
   0.16331184  0.24849231  0.86971485
   0.16637210  0.76633038  0.87241140
   0.50138848  0.25005558  0.86924665
   0.49881187  0.76101774  0.87218007
   0.83464093  0.24227707  0.86503544
   0.83520273  0.76290478  0.86595185
   0.16770965  0.24722802  0.53138406
   0.33655694  0.04703528  0.97645453
   0.00245744  0.00146473  0.26490714
   0.33339231  0.00101191  0.25866955
   0.88573417  0.00244851  0.03813778
   0.00502773  0.00244196  0.58400820
   0.66260683  0.00153123  0.92394865
Direct configuration=     5
   0.00178952  0.26020997  0.21937375
   0.16382562  0.00053090  0.22080994
   0.15844765  0.27240534  0.03953501
   0.00218492  0.74145516  0.21738384
   0.17908705  0.50023689  0.19951694
   0.16107896  0.72450719  0.03940570
   0.33387911  0.23995961  0.20786007
   0.50218776  0.00083448  0.20394091
   0.50489808  0.28823913  0.04064904
   0.33400123  0.75990120  0.21079342
   0.47694885  0.50030324  0.20939212
   0.50262286  0.71096451  0.04040058
   0.84405837  0.00152782  0.20398164
   0.84514846  0.25254952  0.03996476
   0.66857241  0.70754779  0.20267353
   0.84980325  0.50176482  0.19778089
   0.84448156  0.75099610  0.03994392
   0.00291478  0.24915785  0.54937349
   0.17548601  0.00161322  0.53820804
   0.16658024  0.29758502  0.37464565
   0.00267474  0.75543404  0.54840054
   0.15831831  0.50159861  0.56392475
   0.16627995  0.70449531  0.37459565
   0.33512911  0.27650965  0.53385610
   0.48575221  0.00187986  0.53727167
   0.50750428  0.28274888  0.37243942
   0.33497265  0.72788642  0.53559605
   0.50099983  0.50175531  0.55799150
   0.50738332  0.71967219  0.37262346
   0.66732369  0.28233169  0.54527505
   0.83967433  0.00256117  0.54648655
   0.82997702  0.27497474  0.37369986
   0.66771225  0.72285477  0.54457743
   0.85041029  0.50272532  0.53241913
   0.83030673  0.72992823  0.37306214
   0.00084066  0.27368688  0.86252737
   0.19969482  0.00109299  0.87953275
   0.19263052  0.23916763  0.70782487
   0.00257066  0.72609576  0.86530576
   0.16621173  0.49718410  0.85795439
   0.18912640  0.76168916  0.70825441
   0.33639994  0.27717507  0.89099991
   0.48150442  0.00120347  0.88829261
   0.48084027  0.23986179  0.70781078
   0.33542249  0.71277446  0.88274957
   0.51821701  0.49973622  0.85430272
   0.48371229  0.76191560  0.70806731
   0.66693924  0.24250221  0.87718656
   0.83483827  0.00162870  0.87815715
   0.83014799  0.29418751  0.70659723
   0.66637760  0.75829706  0.87774345
   0.82336650  0.50137789  0.88939227
   0.83104391  0.71226818  0.70690246
   0.66914210  0.29555814  0.20335859
   0.99634452  0.50315648  0.03633835
   0.33296235  0.50254563  0.04279266
   0.66835389  0.50216024  0.03496324
   0.99497926  0.50107261  0.36873210
   0.33742149  0.50128502  0.36661576
   0.66845833  0.50142469  0.37265771
   0.99727293  0.50447030  0.69976011
   0.33268885  0.00176204  0.69304698
   0.33326571  0.50413649  0.70263324
   0.66748242  0.50507537  0.70059058
   0.16613467  0.24367481  0.20174220
   0.16649210  0.75931233  0.20242164
   0.50398192  0.24095555  0.20112968
   0.50330103  0.76269772  0.20200668
   0.83091067  0.24257587  0.20472327
   0.83043274  0.76088574  0.20496424
   0.16760329  0.75718437  0.53147847
   0.50358331  0.24091966  0.53122619
   0.50393117  0.76409337  0.53189293
   0.83070750  0.23915714  0.53610270
   0.83106281  0.76651757  0.53543099
   0.16330997  0.24849253  0.86972069
   0.16637162  0.76633000  0.87242198
   0.50138785  0.25005528  0.86925275
   0.49881165  0.76101875  0.87218924
   0.83464008  0.24227808  0.86504537
   0.83520247  0.76290782  0.86595876
   0.16771028  0.24723176  0.53138944
   0.33655609  0.04703624  0.97646071
   0.00245688  0.00146630  0.26491311
   0.33339571  0.00101063  0.25867445
   0.88574386  0.00244441  0.03814661
   0.00502627  0.00244466  0.58401472
   0.66260842  0.00153438  0.92395956
Direct configuration=     6
   0.00178965  0.26020926  0.21938200
   0.16382611  0.00053114  0.22081854
   0.15844993  0.27240592  0.03954324
   0.00218637  0.74145571  0.21739473
   0.17908780  0.50023831  0.19952207
   0.16108112  0.72450572  0.03941333
   0.33387904  0.23996032  0.20786548
   0.50219062  0.00083274  0.20394921
   0.50489740  0.28823994  0.04065566
   0.33400003  0.75990070  0.21080133
   0.47694895  0.50030461  0.20939848
   0.50262333  0.71096385  0.04040675
   0.84406068  0.00152845  0.20398837
   0.84515012  0.25255132  0.03997313
   0.66857481  0.70754586  0.20268359
   0.84980458  0.50176617  0.19779089
   0.84448277  0.75099784  0.03995134
   0.00291552  0.24916157  0.54938167
   0.17548651  0.00161554  0.53821580
   0.16658074  0.29758587  0.37465302
   0.00267660  0.75543447  0.54840669
   0.15831711  0.50159755  0.56393296
   0.16628150  0.70449503  0.37460520
   0.33512846  0.27651063  0.53386438
   0.48575113  0.00188093  0.53727831
   0.50750560  0.28274725  0.37244705
   0.33497246  0.72788711  0.53560450
   0.50099900  0.50175438  0.55799594
   0.50738378  0.71967424  0.37263336
   0.66732369  0.28233169  0.54528541
   0.83967479  0.00256344  0.54649695
   0.82997765  0.27497629  0.37371008
   0.66771246  0.72285530  0.54458359
   0.85040936  0.50272607  0.53242755
   0.83030702  0.72993000  0.37307229
   0.00084282  0.27368931  0.86253562
   0.19969549  0.00109522  0.87954044
   0.19263174  0.23916746  0.70783105
   0.00257309  0.72609674  0.86531316
   0.16621150  0.49718313  0.85796140
   0.18912584  0.76168952  0.70826149
   0.33639893  0.27717797  0.89100690
   0.48150265  0.00120397  0.88830055
   0.48084116  0.23986355  0.70781720
   0.33542222  0.71277261  0.88275709
   0.51821929  0.49973623  0.85431164
   0.48371645  0.76191410  0.70807426
   0.66693961  0.24250119  0.87719667
   0.83483952  0.00162960  0.87816406
   0.83014812  0.29419048  0.70660710
   0.66637856  0.75829949  0.87775060
   0.82336593  0.50138019  0.88939966
   0.83104470  0.71226861  0.70691040
   0.66914406  0.29556021  0.20336603
   0.99634488  0.50315829  0.03634682
   0.33296345  0.50254684  0.04280020
   0.66835403  0.50216182  0.03497133
   0.99497950  0.50107338  0.36874041
   0.33742243  0.50128522  0.36662335
   0.66845916  0.50142616  0.37266606
   0.99727374  0.50447159  0.69976884
   0.33268884  0.00176244  0.69305432
   0.33326616  0.50413608  0.70264132
   0.66748346  0.50507684  0.70059886
   0.16613480  0.24367590  0.20175053
   0.16649384  0.75931315  0.20243458
   0.50398259  0.24095283  0.20113796
   0.50330248  0.76269632  0.20201674
   0.83090982  0.24257696  0.20473340
   0.83043450  0.76088595  0.20497301
   0.16760352  0.75719085  0.53148846
   0.50358340  0.24092020  0.53123252
   0.50393081  0.76409479  0.53190314
   0.83070682  0.23915805  0.53610983
   0.83106160  0.76651895  0.53543794
   0.16330813  0.24849303  0.86972650
   0.16637113  0.76632944  0.87243250
   0.50138717  0.25005515  0.86925887
   0.49881137  0.76101957  0.87219837
   0.83463920  0.24227933  0.86505524
   0.83520217  0.76291066  0.86596565
   0.16771096  0.24723569  0.53139464
   0.33655529  0.04703750  0.97646680
   0.00245622  0.00146789  0.26491901
   0.33339916  0.00100941  0.25867922
   0.88575347  0.00244032  0.03815575
   0.00502475  0.00244759  0.58402105
   0.66260981  0.00153767  0.92396922
Direct configuration=     7
   0.00178990  0.26020848  0.21939024
   0.16382658  0.00053142  0.22082722
   0.15845218  0.27240635  0.03955132
   0.00218790  0.74145637  0.21740562
   0.17908863  0.50023981  0.19952719
   0.16108332  0.72450441  0.03942096
   0.33387878  0.23996079  0.20787089
   0.50219350  0.00083102  0.20395755
   0.50489681  0.28824066  0.04066247
   0.33399871  0.75990037  0.21080938
   0.47694912  0.50030615  0.20940494
   0.50262394  0.71096341  0.04041300
   0.84406296  0.00152903  0.20399507
   0.84515184  0.25255290  0.03998135
   0.66857718  0.70754403  0.20269373
   0.84980591  0.50176761  0.19780091
   0.84448392  0.75099968  0.03995871
   0.00291613  0.24916507  0.54938978
   0.17548694  0.00161763  0.53822358
   0.16658122  0.29758652  0.37466029
   0.00267829  0.75543520  0.54841284
   0.15831577  0.50159651  0.56394117
   0.16628301  0.70449477  0.37461466
   0.33512791  0.27651139  0.53387262
   0.48574990  0.00188196  0.53728510
   0.50750697  0.28274545  0.37245459
   0.33497224  0.72788809  0.53561300
   0.50099838  0.50175346  0.55800041
   0.50738436  0.71967639  0.37264326
   0.66732382  0.28233167  0.54529564
   0.83967536  0.00256559  0.54650747
   0.82997821  0.27497770  0.37372026
   0.66771283  0.72285589  0.54458980
   0.85040832  0.50272687  0.53243587
   0.83030725  0.72993183  0.37308252
   0.00084494  0.27369152  0.86254383
   0.19969618  0.00109728  0.87954813
   0.19263306  0.23916693  0.70783742
   0.00257563  0.72609784  0.86532062
   0.16621111  0.49718203  0.85796850
   0.18912538  0.76169019  0.70826883
   0.33639796  0.27718051  0.89101383
   0.48150085  0.00120447  0.88830847
   0.48084198  0.23986498  0.70782366
   0.33542185  0.71277107  0.88276469
   0.51822167  0.49973618  0.85432050
   0.48372049  0.76191291  0.70808123
   0.66693998  0.24250007  0.87720675
   0.83484079  0.00163049  0.87817086
   0.83014818  0.29419322  0.70661705
   0.66637946  0.75830207  0.87775779
   0.82336530  0.50138245  0.88940709
   0.83104551  0.71226931  0.70691841
   0.66914594  0.29556223  0.20337346
   0.99634532  0.50316010  0.03635527
   0.33296454  0.50254809  0.04280770
   0.66835415  0.50216342  0.03497940
   0.99497982  0.50107419  0.36874877
   0.33742334  0.50128544  0.36663099
   0.66845996  0.50142764  0.37267444
   0.99727460  0.50447289  0.69977764
   0.33268886  0.00176285  0.69306169
   0.33326661  0.50413566  0.70264943
   0.66748445  0.50507831  0.70060720
   0.16613497  0.24367705  0.20175878
   0.16649559  0.75931390  0.20244755
   0.50398319  0.24095013  0.20114624
   0.50330385  0.76269485  0.20202665
   0.83090895  0.24257818  0.20474350
   0.83043635  0.76088618  0.20498177
   0.16760384  0.75719735  0.53149854
   0.50358348  0.24092089  0.53123893
   0.50393041  0.76409608  0.53191343
   0.83070619  0.23915904  0.53611695
   0.83106044  0.76652011  0.53544485
   0.16330632  0.24849374  0.86973234
   0.16637063  0.76632873  0.87244300
   0.50138642  0.25005510  0.86926504
   0.49881103  0.76102024  0.87220747
   0.83463829  0.24228071  0.86506506
   0.83520186  0.76291336  0.86597254
   0.16771167  0.24723976  0.53139969
   0.33655450  0.04703904  0.97647280
   0.00245548  0.00146951  0.26492489
   0.33340263  0.00100824  0.25868386
   0.88576301  0.00243627  0.03816515
   0.00502319  0.00245074  0.58402723
   0.66261102  0.00154109  0.92397764
Direct configuration=     8
   0.00179022  0.26020756  0.21939848
   0.16382702  0.00053179  0.22083608
   0.15845440  0.27240666  0.03955931
   0.00218943  0.74145721  0.21741650
   0.17908949  0.50024133  0.19953244
   0.16108556  0.72450322  0.03942864
   0.33387834  0.23996099  0.20787635
   0.50219632  0.00082935  0.20396593
   0.50489629  0.28824123  0.04066956
   0.33399730  0.75990021  0.21081762
   0.47694943  0.50030779  0.20941148
   0.50262466  0.71096320  0.04041942
   0.84406528  0.00152960  0.20400170
   0.84515365  0.25255417  0.03998947
   0.66857952  0.70754229  0.20270392
   0.84980715  0.50176908  0.19781101
   0.84448502  0.75100172  0.03996608
   0.00291657  0.24916830  0.54939780
   0.17548718  0.00161952  0.53823127
   0.16658173  0.29758695  0.37466732
   0.00267979  0.75543625  0.54841899
   0.15831433  0.50159549  0.56394923
   0.16628451  0.70449450  0.37462393
   0.33512740  0.27651198  0.53388070
   0.48574853  0.00188295  0.53729192
   0.50750832  0.28274354  0.37246191
   0.33497196  0.72788930  0.53562146
   0.50099790  0.50175252  0.55800474
   0.50738496  0.71967857  0.37265302
   0.66732414  0.28233163  0.54530568
   0.83967611  0.00256766  0.54651813
   0.82997877  0.27497895  0.37373030
   0.66771342  0.72285651  0.54459605
   0.85040716  0.50272772  0.53244410
   0.83030749  0.72993369  0.37309274
   0.00084691  0.27369350  0.86255205
   0.19969684  0.00109920  0.87955588
   0.19263431  0.23916621  0.70784391
   0.00257820  0.72609907  0.86532814
   0.16621059  0.49718088  0.85797569
   0.18912487  0.76169105  0.70827637
   0.33639701  0.27718272  0.89102076
   0.48149909  0.00120503  0.88831652
   0.48084286  0.23986621  0.70783007
   0.33542138  0.71276985  0.88277237
   0.51822408  0.49973610  0.85432944
   0.48372454  0.76191189  0.70808819
   0.66694042  0.24249877  0.87721688
   0.83484208  0.00163142  0.87817768
   0.83014822  0.29419570  0.70662697
   0.66638034  0.75830489  0.87776510
   0.82336468  0.50138463  0.88941453
   0.83104637  0.71227034  0.70692641
   0.66914772  0.29556415  0.20338089
   0.99634567  0.50316191  0.03636376
   0.33296565  0.50254935  0.04281523
   0.66835430  0.50216500  0.03498746
   0.99498009  0.50107502  0.36875708
   0.33742429  0.50128565  0.36663859
   0.66846076  0.50142911  0.37268281
   0.99727542  0.50447420  0.69978639
   0.33268886  0.00176329  0.69306901
   0.33326706  0.50413526  0.70265747
   0.66748543  0.50507977  0.70061551
   0.16613519  0.24367831  0.20176697
   0.16649736  0.75931453  0.20246054
   0.50398372  0.24094754  0.20115453
   0.50330514  0.76269324  0.20203643
   0.83090807  0.24257962  0.20475357
   0.83043828  0.76088634  0.20499051
   0.16760426  0.75720384  0.53150875
   0.50358354  0.24092175  0.53124545
   0.50392996  0.76409722  0.53192384
   0.83070563  0.23916017  0.53612407
   0.83105932  0.76652101  0.53545176
   0.16330457  0.24849468  0.86973818
   0.16637014  0.76632786  0.87245348
   0.50138562  0.25005518  0.86927128
   0.49881064  0.76102071  0.87221654
   0.83463735  0.24228228  0.86507485
   0.83520154  0.76291586  0.86597942
   0.16771242  0.24724399  0.53140465
   0.33655375  0.04704089  0.97647873
   0.00245465  0.00147116  0.26493071
   0.33340613  0.00100717  0.25868835
   0.88577243  0.00243228  0.03817482
   0.00502159  0.00245412  0.58403324
   0.66261210  0.00154464  0.92398485
Direct configuration=     9
   0.00179049  0.26020668  0.21940670
   0.16382746  0.00053228  0.22084503
   0.15845659  0.27240688  0.03956730
   0.00219083  0.74145806  0.21742733
   0.17909041  0.50024286  0.19953779
   0.16108784  0.72450217  0.03943642
   0.33387789  0.23996110  0.20788184
   0.50219917  0.00082783  0.20397433
   0.50489586  0.28824176  0.04067703
   0.33399593  0.75990007  0.21082604
   0.47694987  0.50030952  0.20941808
   0.50262550  0.71096321  0.04042603
   0.84406752  0.00153021  0.20400831
   0.84515550  0.25255533  0.03999761
   0.66858183  0.70754068  0.20271414
   0.84980833  0.50177057  0.19782115
   0.84448606  0.75100373  0.03997348
   0.00291680  0.24917139  0.54940569
   0.17548736  0.00162123  0.53823892
   0.16658226  0.29758713  0.37467416
   0.00268102  0.75543748  0.54842514
   0.15831288  0.50159449  0.56395714
   0.16628600  0.70449428  0.37463305
   0.33512704  0.27651238  0.53388871
   0.48574707  0.00188393  0.53729881
   0.50750964  0.28274147  0.37246901
   0.33497168  0.72789076  0.53562998
   0.50099759  0.50175157  0.55800899
   0.50738560  0.71968081  0.37266267
   0.66732464  0.28233153  0.54531553
   0.83967689  0.00256969  0.54652886
   0.82997929  0.27498012  0.37374019
   0.66771419  0.72285720  0.54460236
   0.85040583  0.50272860  0.53245226
   0.83030773  0.72993553  0.37310291
   0.00084866  0.27369537  0.86256026
   0.19969745  0.00110082  0.87956358
   0.19263563  0.23916527  0.70785038
   0.00258070  0.72610040  0.86533575
   0.16620996  0.49717986  0.85798296
   0.18912444  0.76169210  0.70828403
   0.33639614  0.27718465  0.89102760
   0.48149732  0.00120554  0.88832452
   0.48084370  0.23986725  0.70783632
   0.33542089  0.71276894  0.88278002
   0.51822650  0.49973610  0.85433842
   0.48372849  0.76191104  0.70809509
   0.66694088  0.24249750  0.87722704
   0.83484340  0.00163224  0.87818445
   0.83014821  0.29419801  0.70663668
   0.66638116  0.75830777  0.87777249
   0.82336405  0.50138684  0.88942198
   0.83104726  0.71227162  0.70693432
   0.66914938  0.29556596  0.20338828
   0.99634613  0.50316372  0.03637220
   0.33296674  0.50255063  0.04282270
   0.66835443  0.50216659  0.03499549
   0.99498044  0.50107589  0.36876544
   0.33742522  0.50128588  0.36664625
   0.66846154  0.50143061  0.37269122
   0.99727629  0.50447552  0.69979519
   0.33268888  0.00176373  0.69307636
   0.33326752  0.50413484  0.70266555
   0.66748636  0.50508124  0.70062386
   0.16613544  0.24367956  0.20177507
   0.16649914  0.75931517  0.20247351
   0.50398416  0.24094494  0.20116278
   0.50330638  0.76269160  0.20204604
   0.83090719  0.24258110  0.20476360
   0.83044027  0.76088648  0.20499924
   0.16760474  0.75721039  0.53151901
   0.50358358  0.24092267  0.53125211
   0.50392948  0.76409830  0.53193436