unknown system                          
           1
    11.636000    0.000000    0.000000
     0.000000    7.905000    0.000000
     0.000000    0.000000   11.636000
   O    La   Ti   Li
    54    10    18     6
Direct configuration=     1
   0.00192680  0.26003544  0.19521810
   0.16446297  0.00021046  0.19702155
   0.15854248  0.27485364  0.01685238
   0.00236031  0.74107620  0.19336294
   0.18005901  0.50001020  0.17755435
   0.16155687  0.72196485  0.01663985
   0.33459012  0.23921810  0.18371664
   0.50286002  0.00046750  0.18234216
   0.50740779  0.28728259  0.01759172
   0.33466870  0.76008121  0.18728046
   0.47667122  0.49994237  0.18614313
   0.50458428  0.71143222  0.01741750
   0.84327657  0.00112603  0.18143995
   0.84223472  0.25137066  0.01655243
   0.66898592  0.70547695  0.18099466
   0.85051284  0.50133827  0.17421971
   0.84203139  0.75127160  0.01660935
   0.00370530  0.24893867  0.52575994
   0.17650065  0.00118134  0.51490498
   0.16688061  0.29634868  0.35124018
   0.00343534  0.75441911  0.52504864
   0.15864096  0.50093295  0.54050634
   0.16640895  0.70485142  0.35137631
   0.33551712  0.27766434  0.51014592
   0.48562263  0.00129530  0.51527111
   0.50780839  0.28200228  0.34975383
   0.33529428  0.72560762  0.51178499
   0.50327514  0.50117748  0.53436145
   0.50789313  0.71938823  0.34996316
   0.66789382  0.27930413  0.52353961
   0.84056670  0.00187252  0.52473149
   0.83057199  0.27402708  0.35091311
   0.66829449  0.72438038  0.52288912
   0.84986906  0.50217944  0.50836793
   0.83091932  0.72977787  0.35027803
   0.00157508  0.27364860  0.84080495
   0.19953414  0.00041675  0.85755811
   0.19309438  0.23801330  0.68511662
   0.00319341  0.72466951  0.84321821
   0.16783454  0.49653346  0.83368044
   0.18953384  0.76173179  0.68545115
   0.33655461  0.27410109  0.87005104
   0.48360789  0.00047339  0.86137083
   0.47875390  0.24122602  0.68485587
   0.33552165  0.71457541  0.86128972
   0.51589399  0.49945547  0.83180495
   0.48199231  0.75966561  0.68480248
   0.66714566  0.24535742  0.84772748
   0.83380994  0.00089698  0.85144484
   0.83264577  0.29550704  0.68340278
   0.66659832  0.75428773  0.84912530
   0.82454973  0.50089767  0.86710788
   0.83322766  0.70984341  0.68374317
   0.66950548  0.29700282  0.18182161
   0.99741555  0.50234039  0.01466523
   0.33377844  0.50179699  0.02074334
   0.66995078  0.50174689  0.01355923
   0.99554717  0.50077897  0.34644210
   0.33800982  0.50110311  0.34409721
   0.66887495  0.50101102  0.35169895
   0.99886789  0.50362053  0.67688850
   0.33364226  0.00128104  0.67104339
   0.33392050  0.50361790  0.67944905
   0.66816840  0.50410715  0.67934088
   0.16701669  0.24330409  0.17892643
   0.16727488  0.75870635  0.17972676
   0.50509252  0.24023942  0.17876362
   0.50434292  0.76241684  0.17971567
   0.83126108  0.24229496  0.18284165
   0.83086252  0.76026008  0.18289551
   0.16838408  0.75739437  0.50847934
   0.50405137  0.24024108  0.50897894
   0.50444453  0.76330834  0.50972897
   0.83143412  0.23837449  0.51403018
   0.83174482  0.76570215  0.51334517
   0.16446270  0.24790047  0.84731506
   0.16706410  0.76565754  0.84988083
   0.50142934  0.25043493  0.84738829
   0.49897859  0.75847715  0.85003443
   0.83630146  0.24277679  0.84252935
   0.83694102  0.76063063  0.84333124
   0.16859083  0.24696776  0.50824709
   0.33814716  0.04254531  0.95271554
   0.00284467  0.00114663  0.23775641
   0.33410657  0.00069645  0.23514360
   0.87249974  0.00185838  0.01495311
   0.00595847  0.00200984  0.56004824
   0.66348044  0.00040761  0.86722864
Direct configuration=     2
   0.00192740  0.26003818  0.19522176
   0.16446229  0.00020965  0.19702707
   0.15854155  0.27485004  0.01685604
   0.00236058  0.74107478  0.19336950
   0.18005921  0.50000980  0.17755809
   0.16155547  0.72196565  0.01664513
   0.33458974  0.23921577  0.18371912
   0.50286050  0.00046762  0.18234338
   0.50740890  0.28728099  0.01759301
   0.33466924  0.76008261  0.18728399
   0.47667110  0.49993877  0.18614620
   0.50458511  0.71143275  0.01742003
   0.84327654  0.00112503  0.18144448
   0.84223332  0.25137060  0.01655743
   0.66898682  0.70547613  0.18099984
   0.85051323  0.50133745  0.17422264
   0.84203023  0.75127200  0.01661387
   0.00370636  0.24893731  0.52576300
   0.17650244  0.00118010  0.51490916
   0.16688127  0.29634941  0.35124300
   0.00343493  0.75441995  0.52505119
   0.15864327  0.50093238  0.54051268
   0.16640967  0.70485332  0.35138160
   0.33551750  0.27766680  0.51014669
   0.48562137  0.00129408  0.51527254
   0.50780812  0.28200177  0.34975571
   0.33529434  0.72560565  0.51178843
   0.50327499  0.50117661  0.53436353
   0.50789312  0.71938545  0.34996477
   0.66789372  0.27930388  0.52354117
   0.84056765  0.00187274  0.52473372
   0.83057261  0.27402591  0.35091621
   0.66829544  0.72438068  0.52289230
   0.84987037  0.50217982  0.50837043
   0.83091913  0.72977860  0.35028152
   0.00157442  0.27364807  0.84080851
   0.19953437  0.00041781  0.85755954
   0.19309488  0.23801505  0.68511934
   0.00319292  0.72466754  0.84322352
   0.16783548  0.49653222  0.83368369
   0.18953422  0.76172723  0.68545574
   0.33655414  0.27409951  0.87005375
   0.48360607  0.00047301  0.86137298
   0.47875138  0.24122593  0.68485794
   0.33552120  0.71457556  0.86129309
   0.51589212  0.49945435  0.83180529
   0.48199280  0.75966480  0.68480615
   0.66714587  0.24535632  0.84772794
   0.83380852  0.00089612  0.85144683
   0.83264661  0.29550653  0.68340491
   0.66659844  0.75428660  0.84912474
   0.82454791  0.50089773  0.86711162
   0.83322820  0.70984257  0.68374544
   0.66950625  0.29700212  0.18182603
   0.99741554  0.50233793  0.01466886
   0.33377796  0.50179575  0.02074855
   0.66995131  0.50174576  0.01356361
   0.99554830  0.50077803  0.34644548
   0.33801025  0.50110291  0.34410075
   0.66887506  0.50100969  0.35170413
   0.99886761  0.50362009  0.67689198
   0.33364253  0.00127937  0.67104804
   0.33392093  0.50361914  0.67945325
   0.66816839  0.50410694  0.67934521
   0.16701764  0.24330269  0.17893061
   0.16727518  0.75870729  0.17973254
   0.50509249  0.24024160  0.17876637
   0.50434377  0.76241871  0.17972024
   0.83126079  0.24229398  0.18284769
   0.83086239  0.76025859  0.18289998
   0.16838416  0.75739609  0.50848417
   0.50405130  0.24023748  0.50898077
   0.50444544  0.76330848  0.50973253
   0.83143351  0.23837420  0.51403611
   0.83174580  0.76570145  0.51334712
   0.16446315  0.24790096  0.84731840
   0.16706262  0.76566139  0.84988648
   0.50142980  0.25043231  0.84738943
   0.49897839  0.75847780  0.85003767
   0.83630149  0.24277572  0.84253444
   0.83694091  0.76063000  0.84333400
   0.16859099  0.24696599  0.50825164
   0.33814507  0.04254609  0.95271790
   0.00284411  0.00114801  0.23775776
   0.33410557  0.00069956  0.23514437
   0.87249737  0.00185145  0.01495561
   0.00595792  0.00201021  0.56005009
   0.66348002  0.00040588  0.86722719
Direct configuration=     3
   0.00192788  0.26004109  0.19522544
   0.16446167  0.00020899  0.19703265
   0.15854068  0.27484693  0.01685980
   0.00236074  0.74107322  0.19337615
   0.18005958  0.50000935  0.17756171
   0.16155411  0.72196598  0.01665053
   0.33458932  0.23921352  0.18372163
   0.50286091  0.00046787  0.18234461
   0.50740996  0.28727976  0.01759414
   0.33466983  0.76008378  0.18728767
   0.47667077  0.49993525  0.18614929
   0.50458582  0.71143291  0.01742241
   0.84327666  0.00112412  0.18144907
   0.84223196  0.25137070  0.01656259
   0.66898765  0.70547490  0.18100502
   0.85051367  0.50133677  0.17422550
   0.84202911  0.75127211  0.01661849
   0.00370723  0.24893605  0.52576614
   0.17650415  0.00117897  0.51491335
   0.16688200  0.29635034  0.35124560
   0.00343454  0.75442074  0.52505374
   0.15864572  0.50093184  0.54051900
   0.16641041  0.70485483  0.35138667
   0.33551785  0.27766954  0.51014750
   0.48561998  0.00129301  0.51527397
   0.50780779  0.28200168  0.34975736
   0.33529442  0.72560331  0.51179182
   0.50327479  0.50117567  0.53436554
   0.50789303  0.71938220  0.34996618
   0.66789353  0.27930395  0.52354268
   0.84056880  0.00187311  0.52473596
   0.83057327  0.27402505  0.35091902
   0.66829644  0.72438064  0.52289539
   0.84987176  0.50218007  0.50837293
   0.83091893  0.72977905  0.35028478
   0.00157375  0.27364799  0.84081209
   0.19953476  0.00041927  0.85756089
   0.19309553  0.23801697  0.68512168
   0.00319235  0.72466529  0.84322881
   0.16783652  0.49653137  0.83368679
   0.18953472  0.76172249  0.68545991
   0.33655361  0.27409814  0.87005654
   0.48360418  0.00047301  0.86137519
   0.47874868  0.24122616  0.68485965
   0.33552076  0.71457538  0.86129645
   0.51589015  0.49945326  0.83180561
   0.48199319  0.75966382  0.68480951
   0.66714595  0.24535523  0.84772846
   0.83380690  0.00089543  0.85144896
   0.83264743  0.29550650  0.68340659
   0.66659851  0.75428548  0.84912418
   0.82454610  0.50089781  0.86711549
   0.83322872  0.70984135  0.68374728
   0.66950706  0.29700164  0.18183046
   0.99741551  0.50233549  0.01467240
   0.33377746  0.50179456  0.02075367
   0.66995185  0.50174466  0.01356793
   0.99554942  0.50077710  0.34644885
   0.33801069  0.50110273  0.34410425
   0.66887517  0.50100836  0.35170928
   0.99886727  0.50361968  0.67689551
   0.33364280  0.00127769  0.67105273
   0.33392135  0.50362040  0.67945747
   0.66816846  0.50410675  0.67934953
   0.16701863  0.24330109  0.17893481
   0.16727545  0.75870843  0.17973833
   0.50509258  0.24024356  0.17876928
   0.50434475  0.76242072  0.17972483
   0.83126046  0.24229295  0.18285377
   0.83086221  0.76025718  0.18290445
   0.16838423  0.75739780  0.50848911
   0.50405132  0.24023377  0.50898276
   0.50444642  0.76330876  0.50973615
   0.83143289  0.23837382  0.51404220
   0.83174679  0.76570089  0.51334928
   0.16446359  0.24790121  0.84732191
   0.16706106  0.76566535  0.84989204
   0.50143030  0.25042962  0.84739060
   0.49897826  0.75847843  0.85004081
   0.83630164  0.24277448  0.84253951
   0.83694085  0.76062941  0.84333677
   0.16859110  0.24696414  0.50825625
   0.33814301  0.04254693  0.95271996
   0.00284359  0.00114949  0.23775899
   0.33410451  0.00070278  0.23514495
   0.87249490  0.00184443  0.01495828
   0.00595709  0.00201056  0.56005187
   0.66347974  0.00040436  0.86722573
Direct configuration=     4
   0.00192833  0.26004418  0.19522912
   0.16446113  0.00020842  0.19703826
   0.15853990  0.27484425  0.01686368
   0.00236086  0.74107151  0.19338285
   0.18006006  0.50000879  0.17756525
   0.16155284  0.72196583  0.01665601
   0.33458878  0.23921146  0.18372414
   0.50286124  0.00046816  0.18234582
   0.50741093  0.28727879  0.01759519
   0.33467043  0.76008460  0.18729149
   0.47667017  0.49993176  0.18615237
   0.50458638  0.71143278  0.01742466
   0.84327688  0.00112328  0.18145379
   0.84223060  0.25137095  0.01656796
   0.66898846  0.70547328  0.18101018
   0.85051421  0.50133625  0.17422833
   0.84202798  0.75127189  0.01662325
   0.00370807  0.24893495  0.52576926
   0.17650580  0.00117789  0.51491745
   0.16688281  0.29635138  0.35124817
   0.00343429  0.75442143  0.52505619
   0.15864834  0.50093131  0.54052523
   0.16641118  0.70485599  0.35139168
   0.33551814  0.27767253  0.51014831
   0.48561846  0.00129205  0.51527535
   0.50780730  0.28200193  0.34975893
   0.33529446  0.72560065  0.51179512
   0.50327444  0.50117467  0.53436747
   0.50789279  0.71937855  0.34996755
   0.66789325  0.27930429  0.52354413
   0.84057013  0.00187360  0.52473814
   0.83057407  0.27402440  0.35092164
   0.66829745  0.72438027  0.52289838
   0.84987329  0.50218019  0.50837539
   0.83091880  0.72977929  0.35028787
   0.00157309  0.27364831  0.84081571
   0.19953526  0.00042093  0.85756219
   0.19309627  0.23801914  0.68512379
   0.00319172  0.72466275  0.84323412
   0.16783772  0.49653071  0.83368978
   0.18953525  0.76171752  0.68546382
   0.33655315  0.27409704  0.87005940
   0.48360229  0.00047325  0.86137744
   0.47874589  0.24122675  0.68486121
   0.33552044  0.71457487  0.86129979
   0.51588808  0.49945212  0.83180595
   0.48199354  0.75966264  0.68481272
   0.66714585  0.24535417  0.84772904
   0.83380511  0.00089487  0.85145116
   0.83264825  0.29550685  0.68340803
   0.66659848  0.75428434  0.84912366
   0.82454427  0.50089789  0.86711953
   0.83322924  0.70983984  0.68374890
   0.66950796  0.29700132  0.18183490
   0.99741545  0.50233298  0.01467606
   0.33377697  0.50179333  0.02075884
   0.66995238  0.50174355  0.01357223
   0.99555055  0.50077610  0.34645225
   0.33801113  0.50110252  0.34410772
   0.66887531  0.50100699  0.35171445
   0.99886692  0.50361928  0.67689893
   0.33364308  0.00127598  0.67105741
   0.33392178  0.50362165  0.67946162
   0.66816853  0.50410654  0.67935378
   0.16701967  0.24329943  0.17893904
   0.16727569  0.75870970  0.17974417
   0.50509274  0.24024540  0.17877228
   0.50434578  0.76242280  0.17972942
   0.83126014  0.24229192  0.18285988
   0.83086203  0.76025579  0.18290891
   0.16838429  0.75739941  0.50849410
   0.50405138  0.24023009  0.50898486
   0.50444743  0.76330905  0.50973977
   0.83143229  0.23837345  0.51404835
   0.83174783  0.76570038  0.51335159
   0.16446405  0.24790141  0.84732554
   0.16705948  0.76566938  0.84989744
   0.50143084  0.25042691  0.84739178
   0.49897820  0.75847905  0.85004379
   0.83630186  0.24277311  0.84254459
   0.83694079  0.76062884  0.84333953
   0.16859116  0.24696233  0.50826082
   0.33814106  0.04254788  0.95272194
   0.00284314  0.00115106  0.23776021
   0.33410333  0.00070610  0.23514548
   0.87249237  0.00183736  0.01496125
   0.00595612  0.00201090  0.56005356
   0.66347946  0.00040304  0.86722430
Direct configuration=     5
   0.00192870  0.26004737  0.19523278
   0.16446066  0.00020783  0.19704382
   0.15853913  0.27484180  0.01686748
   0.00236099  0.74106976  0.19338957
   0.18006065  0.50000829  0.17756859
   0.16155156  0.72196554  0.01666142
   0.33458827  0.23920938  0.18372659
   0.50286165  0.00046838  0.18234703
   0.50741190  0.28727795  0.01759631
   0.33467114  0.76008534  0.18729536
   0.47666950  0.49992845  0.18615542
   0.50458688  0.71143258  0.01742694
   0.84327706  0.00112249  0.18145865
   0.84222926  0.25137134  0.01657335
   0.66898914  0.70547157  0.18101535
   0.85051475  0.50133594  0.17423106
   0.84202690  0.75127138  0.01662803
   0.00370870  0.24893387  0.52577248
   0.17650746  0.00117685  0.51492161
   0.16688366  0.29635234  0.35125083
   0.00343404  0.75442217  0.52505865
   0.15865105  0.50093082  0.54053151
   0.16641193  0.70485706  0.35139666
   0.33551846  0.27767544  0.51014920
   0.48561692  0.00129115  0.51527673
   0.50780685  0.28200219  0.34976048
   0.33529458  0.72559797  0.51179841
   0.50327420  0.50117364  0.53436939
   0.50789260  0.71937488  0.34996889
   0.66789293  0.27930462  0.52354558
   0.84057150  0.00187420  0.52474033
   0.83057482  0.27402377  0.35092419
   0.66829851  0.72437991  0.52290131
   0.84987480  0.50218019  0.50837794
   0.83091858  0.72977956  0.35029089
   0.00157247  0.27364876  0.84081935
   0.19953573  0.00042268  0.85756345
   0.19309708  0.23802123  0.68512597
   0.00319110  0.72466025  0.84323946
   0.16783888  0.49653016  0.83369277
   0.18953577  0.76171261  0.68546781
   0.33655257  0.27409595  0.87006229
   0.48360030  0.00047362  0.86137971
   0.47874297  0.24122743  0.68486256
   0.33552004  0.71457435  0.86130317
   0.51588592  0.49945099  0.83180630
   0.48199383  0.75966149  0.68481574
   0.66714579  0.24535314  0.84772959
   0.83380333  0.00089442  0.85145330
   0.83264906  0.29550731  0.68340941
   0.66659850  0.75428320  0.84912310
   0.82454255  0.50089799  0.86712362
   0.83322975  0.70983834  0.68375049
   0.66950889  0.29700096  0.18183938
   0.99741539  0.50233051  0.01467959
   0.33377644  0.50179215  0.02076389
   0.66995294  0.50174248  0.01357647
   0.99555171  0.50077512  0.34645564
   0.33801157  0.50110234  0.34411119
   0.66887546  0.50100563  0.35171959
   0.99886652  0.50361890  0.67690246
   0.33364336  0.00127424  0.67106215
   0.33392221  0.50362290  0.67946583
   0.66816867  0.50410635  0.67935807
   0.16702076  0.24329767  0.17894330
   0.16727587  0.75871111  0.17975006
   0.50509299  0.24024712  0.17877538
   0.50434690  0.76242498  0.17973399
   0.83125982  0.24229087  0.18286602
   0.83086180  0.76025445  0.18291334
   0.16838433  0.75740094  0.50849912
   0.50405147  0.24022641  0.50898706
   0.50444847  0.76330938  0.50974340
   0.83143169  0.23837307  0.51405458
   0.83174890  0.76569994  0.51335404
   0.16446453  0.24790160  0.84732928
   0.16705789  0.76567345  0.84990269
   0.50143139  0.25042421  0.84739296
   0.49897818  0.75847962  0.85004664
   0.83630215  0.24277166  0.84254963
   0.83694072  0.76062824  0.84334228
   0.16859117  0.24696054  0.50826534
   0.33813913  0.04254888  0.95272375
   0.00284281  0.00115267  0.23776144
   0.33410211  0.00070945  0.23514599
   0.87248984  0.00183027  0.01496446
   0.00595496  0.00201121  0.56005522
   0.66347917  0.00040189  0.86722289
Direct configuration=     6
   0.00192907  0.26005023  0.19523636
   0.16446024  0.00020718  0.19704931
   0.15853845  0.27483889  0.01687138
   0.00236119  0.74106842  0.19339630
   0.18006129  0.50000776  0.17757188
   0.16155035  0.72196592  0.01666688
   0.33458773  0.23920709  0.18372902
   0.50286223  0.00046850  0.18234825
   0.50741281  0.28727664  0.01759765
   0.33467191  0.76008623  0.18729931
   0.47666882  0.49992522  0.18615842
   0.50458728  0.71143296  0.01742936
   0.84327712  0.00112173  0.18146374
   0.84222786  0.25137135  0.01657888
   0.66898975  0.70547041  0.18102060
   0.85051524  0.50133580  0.17423385
   0.84202575  0.75127117  0.01663290
   0.00370927  0.24893254  0.52577568
   0.17650888  0.00117587  0.51492544
   0.16688460  0.29635268  0.35125372
   0.00343393  0.75442328  0.52506100
   0.15865391  0.50093031  0.54053758
   0.16641272  0.70485858  0.35140172
   0.33551874  0.27767806  0.51014998
   0.48561567  0.00129029  0.51527775
   0.50780638  0.28200194  0.34976208
   0.33529472  0.72559549  0.51180150
   0.50327394  0.50117257  0.53437111
   0.50789237  0.71937175  0.34997030
   0.66789253  0.27930434  0.52354692
   0.84057282  0.00187492  0.52474244
   0.83057559  0.27402262  0.35092672
   0.66829957  0.72438016  0.52290406
   0.84987630  0.50218004  0.50838055
   0.83091829  0.72978041  0.35029386
   0.00157198  0.27364844  0.84082306
   0.19953572  0.00042425  0.85756489
   0.19309756  0.23802329  0.68512834
   0.00319058  0.72465881  0.84324482
   0.16784013  0.49652958  0.83369581
   0.18953593  0.76170780  0.68547200
   0.33655191  0.27409446  0.87006527
   0.48359852  0.00047397  0.86138218
   0.47874030  0.24122822  0.68486378
   0.33551959  0.71457437  0.86130663
   0.51588357  0.49944979  0.83180679
   0.48199442  0.75966040  0.68481865
   0.66714570  0.24535161  0.84773014
   0.83380160  0.00089400  0.85145530
   0.83264989  0.29550715  0.68341084
   0.66659853  0.75428265  0.84912252
   0.82454091  0.50089807  0.86712765
   0.83323030  0.70983760  0.68375217
   0.66950989  0.29699993  0.18184397
   0.99741530  0.50232799  0.01468326
   0.33377592  0.50179095  0.02076901
   0.66995349  0.50174140  0.01358070
   0.99555286  0.50077408  0.34645905
   0.33801201  0.50110213  0.34411463
   0.66887563  0.50100423  0.35172473
   0.99886612  0.50361852  0.67690586
   0.33364364  0.00127249  0.67106688
   0.33392266  0.50362414  0.67946997
   0.66816879  0.50410615  0.67936231
   0.16702187  0.24329587  0.17894759
   0.16727600  0.75871262  0.17975599
   0.50509331  0.24024877  0.17877854
   0.50434807  0.76242720  0.17973854
   0.83125951  0.24228986  0.18287219
   0.83086157  0.76025311  0.18291775
   0.16838436  0.75740236  0.50850415
   0.50405158  0.24022279  0.50898934
   0.50444952  0.76330964  0.50974700
   0.83143112  0.23837274  0.51406085
   0.83175000  0.76569953  0.51335662
   0.16446503  0.24790180  0.84733312
   0.16705628  0.76567761  0.84990778
   0.50143197  0.25042154  0.84739414
   0.49897823  0.75848019  0.85004935
   0.83630250  0.24277012  0.84255465
   0.83694064  0.76062762  0.84334499
   0.16859114  0.24695882  0.50826977
   0.33813729  0.04255000  0.95272560
   0.00284259  0.00115433  0.23776273
   0.33410079  0.00071282  0.23514652
   0.87248731  0.00182321  0.01496801
   0.00595373  0.00201151  0.56005683
   0.66347878  0.00040091  0.86722153
Direct configuration=     7
   0.00192939  0.26005317  0.19523988
   0.16445990  0.00020653  0.19705473
   0.15853782  0.27483621  0.01687531
   0.00236140  0.74106700  0.19340302
   0.18006203  0.50000721  0.17757503
   0.16154918  0.72196611  0.01667232
   0.33458715  0.23920489  0.18373139
   0.50286292  0.00046857  0.18234946
   0.50741367  0.28727544  0.01759908
   0.33467272  0.76008690  0.18730332
   0.47666803  0.49992212  0.18616135
   0.50458762  0.71143323  0.01743182
   0.84327710  0.00112102  0.18146899
   0.84222646  0.25137150  0.01658447
   0.66899031  0.70546910  0.18102584
   0.85051572  0.50133585  0.17423657
   0.84202462  0.75127064  0.01663781
   0.00370981  0.24893129  0.52577891
   0.17651029  0.00117494  0.51492923
   0.16688557  0.29635285  0.35125687
   0.00343397  0.75442435  0.52506331
   0.15865688  0.50092981  0.54054361
   0.16641351  0.70486002  0.35140691
   0.33551896  0.27768064  0.51015085
   0.48561444  0.00128947  0.51527873
   0.50780588  0.28200172  0.34976376
   0.33529486  0.72559296  0.51180459
   0.50327370  0.50117148  0.53437279
   0.50789213  0.71936856  0.34997180
   0.66789210  0.27930406  0.52354825
   0.84057412  0.00187574  0.52474451
   0.83057637  0.27402145  0.35092920
   0.66830065  0.72438035  0.52290674
   0.84987782  0.50217976  0.50838321
   0.83091797  0.72978129  0.35029677
   0.00157152  0.27364828  0.84082680
   0.19953558  0.00042577  0.85756628
   0.19309806  0.23802538  0.68513080
   0.00319002  0.72465737  0.84325020
   0.16784140  0.49652897  0.83369886
   0.18953603  0.76170298  0.68547625
   0.33655127  0.27409309  0.87006826
   0.48359672  0.00047438  0.86138464
   0.47873756  0.24122917  0.68486495
   0.33551918  0.71457431  0.86131008
   0.51588113  0.49944852  0.83180733
   0.48199499  0.75965928  0.68482145
   0.66714557  0.24535015  0.84773067
   0.83379990  0.00089366  0.85145721
   0.83265070  0.29550712  0.68341236
   0.66659858  0.75428205  0.84912193
   0.82453936  0.50089815  0.86713173
   0.83323085  0.70983682  0.68375396
   0.66951097  0.29699886  0.18184858
   0.99741522  0.50232549  0.01468681
   0.33377537  0.50178979  0.02077401
   0.66995405  0.50174036  0.01358488
   0.99555405  0.50077305  0.34646248
   0.33801245  0.50110195  0.34411807
   0.66887581  0.50100283  0.35172986
   0.99886568  0.50361817  0.67690935
   0.33364393  0.00127071  0.67107167
   0.33392311  0.50362537  0.67947417
   0.66816898  0.50410596  0.67936656
   0.16702302  0.24329399  0.17895189
   0.16727609  0.75871423  0.17976193
   0.50509371  0.24025029  0.17878177
   0.50434930  0.76242953  0.17974307
   0.83125920  0.24228881  0.18287840
   0.83086131  0.76025182  0.18292214
   0.16838438  0.75740368  0.50850920
   0.50405171  0.24021920  0.50899172
   0.50445059  0.76330985  0.50975058
   0.83143055  0.23837238  0.51406717
   0.83175114  0.76569920  0.51335933
   0.16446555  0.24790203  0.84733706
   0.16705469  0.76568181  0.84991271
   0.50143255  0.25041889  0.84739531
   0.49897831  0.75848071  0.85005193
   0.83630291  0.24276849  0.84255965
   0.83694056  0.76062695  0.84334768
   0.16859106  0.24695714  0.50827413
   0.33813558  0.04255125  0.95272743
   0.00284245  0.00115603  0.23776408
   0.33409939  0.00071619  0.23514710
   0.87248479  0.00181619  0.01497191
   0.00595246  0.00201178  0.56005843
   0.66347829  0.00040008  0.86722021
Direct configuration=     8
   0.00192974  0.26005599  0.19524329
   0.16445962  0.00020582  0.19706008
   0.15853726  0.27483347  0.01687921
   0.00236173  0.74106573  0.19340970
   0.18006281  0.50000665  0.17757809
   0.16154806  0.72196646  0.01667767
   0.33458653  0.23920268  0.18373371
   0.50286369  0.00046852  0.18235066
   0.50741450  0.28727406  0.01760065
   0.33467356  0.76008748  0.18730739
   0.47666723  0.49991914  0.18616420
   0.50458787  0.71143371  0.01743433
   0.84327703  0.00112032  0.18147439
   0.84222503  0.25137156  0.01659004
   0.66899078  0.70546797  0.18103108
   0.85051617  0.50133611  0.17423928
   0.84202346  0.75127005  0.01664271
   0.00371034  0.24893000  0.52578213
   0.17651160  0.00117406  0.51493289
   0.16688660  0.29635261  0.35126040
   0.00343419  0.75442552  0.52506555
   0.15865994  0.50092930  0.54054946
   0.16641430  0.70486163  0.35141227
   0.33551911  0.27768297  0.51015173
   0.48561329  0.00128866  0.51527958
   0.50780535  0.28200127  0.34976559
   0.33529500  0.72559058  0.51180759
   0.50327347  0.50117039  0.53437434
   0.50789185  0.71936559  0.34997348
   0.66789161  0.27930351  0.52354953
   0.84057542  0.00187663  0.52474654
   0.83057718  0.27402008  0.35093173
   0.66830173  0.72438076  0.52290930
   0.84987933  0.50217936  0.50838594
   0.83091762  0.72978241  0.35029967
   0.00157113  0.27364791  0.84083059
   0.19953522  0.00042713  0.85756768
   0.19309842  0.23802742  0.68513354
   0.00318949  0.72465632  0.84325560
   0.16784270  0.49652820  0.83370197
   0.18953594  0.76169826  0.68548078
   0.33655061  0.27409161  0.87007128
   0.48359500  0.00047475  0.86138715
   0.47873493  0.24123020  0.68486615
   0.33551876  0.71457448  0.86131354
   0.51587857  0.49944714  0.83180798
   0.48199568  0.75965820  0.68482423
   0.66714542  0.24534856  0.84773120
   0.83379820  0.00089335  0.85145906
   0.83265150  0.29550685  0.68341410
   0.66659865  0.75428164  0.84912135
   0.82453792  0.50089822  0.86713579
   0.83323143  0.70983638  0.68375600
   0.66951209  0.29699746  0.18185322
   0.99741511  0.50232294  0.01469047
   0.33377481  0.50178862  0.02077904
   0.66995461  0.50173932  0.01358905
   0.99555523  0.50077198  0.34646590
   0.33801288  0.50110175  0.34412147
   0.66887600  0.50100140  0.35173497
   0.99886523  0.50361782  0.67691276
   0.33364421  0.00126891  0.67107647
   0.33392357  0.50362660  0.67947832
   0.66816917  0.50410577  0.67937078
   0.16702421  0.24329216  0.17895621
   0.16727612  0.75871587  0.17976790
   0.50509417  0.24025177  0.17878505
   0.50435057  0.76243189  0.17974755
   0.83125891  0.24228780  0.18288465
   0.83086104  0.76025053  0.18292652
   0.16838440  0.75740484  0.50851422
   0.50405182  0.24021580  0.50899412
   0.50445164  0.76330996  0.50975411
   0.83143001  0.23837206  0.51407348
   0.83175232  0.76569888  0.51336213
   0.16446610  0.24790237  0.84734108
   0.16705311  0.76568605  0.84991747
   0.50143314  0.25041632  0.84739648
   0.49897843  0.75848120  0.85005437
   0.83630337  0.24276682  0.84256462
   0.83694045  0.76062624  0.84335034
   0.16859095  0.24695558  0.50827834
   0.33813399  0.04255263  0.95272931
   0.00284243  0.00115777  0.23776552
   0.33409792  0.00071952  0.23514774
   0.87248226  0.00180926  0.01497615
   0.00595110  0.00201203  0.56005998
   0.66347773  0.00039942  0.86721894
Direct configuration=     9
   0.00193008  0.26005885  0.19524663
   0.16445943  0.00020510  0.19706537
   0.15853675  0.27483093  0.01688302
   0.00236210  0.74106444  0.19341635
   0.18006371  0.50000609  0.17758098
   0.16154698  0.72196668  0.01668286
   0.33458591  0.23920050  0.18373596
   0.50286452  0.00046839  0.18235187
   0.50741529  0.28727278  0.01760231
   0.33467445  0.76008790  0.18731151
   0.47666631  0.49991633  0.18616698
   0.50458807  0.71143408  0.01743687
   0.84327691  0.00111964  0.18147991
   0.84222360  0.25137168  0.01659552
   0.66899113  0.70546668  0.18103630
   0.85051664  0.50133659  0.17424190
   0.84202231  0.75126921  0.01664753
   0.00371077  0.24892880  0.52578541
   0.17651289  0.00117323  0.51493657
   0.16688766  0.29635223  0.35126418
   0.00343451  0.75442667  0.52506777
   0.15866303  0.50092879  0.54055530
   0.16641509  0.70486313  0.35141768
   0.33551925  0.27768520  0.51015271
   0.48561212  0.00128786  0.51528043
   0.50780481  0.28200082  0.34976753
   0.33529520  0.72558820  0.51181060
   0.50327331  0.50116932  0.53437587
   0.50789157  0.71936261  0.34997529
   0.66789111  0.27930298  0.52355082
   0.84057675  0.00187758  0.52474855
   0.83057799  0.27401871  0.35093431
   0.66830282  0.72438111  0.52291179
   0.84988085  0.50217886  0.50838874
   0.83091722  0.72978355  0.35030257
   0.00157075  0.27364767  0.84083440
   0.19953480  0.00042846  0.85756905
   0.19309882  0.23802940  0.68513646
   0.00318893  0.72465529  0.84326101
   0.16784399  0.49652739  0.83370509
   0.18953579  0.76169365  0.68548547
   0.33654994  0.27409018  0.87007430
   0.48359327  0.00047517  0.86138964
   0.47873224  0.24123130  0.68486729
   0.33551832  0.71457465  0.86131700
   0.51587596  0.49944571  0.83180867
   0.48199634  0.75965715  0.68482687
   0.66714527  0.24534701  0.84773172
   0.83379651  0.00089309  0.85146085
   0.83265229  0.29550671  0.68341600
   0.66659876  0.75428124  0.84912077
   0.82453657  0.50089829  0.86713987
   0.83323201  0.70983594  0.68375819
   0.66951322  0.29699606  0.18185787
   0.99741501  0.50232042  0.01469401
   0.33377424  0.50178749  0.02078396
   0.66995518  0.50173831  0.01359316
   0.99555645  0.50077090  0.34646935
   0.33801331  0.50110157  0.34412489
   0.66887621  0.50099997  0.35174008
   0.99886476  0.50361749  0.67691625
   0.33364451  0.00126709  0.67108131
   0.33392403  0.50362782  0.67948253
   0.66816941  0.50410558  0.67937501
   0.16702543  0.24329035  0.17896056
   0.16727609  0.75871757  0.17977389
   0.50509469  0.24025315  0.17878838
   0.50435188  0.76243431  0.17975200
   0.83125865  0.24228678  0.18289093
   0.83086077  0.76024928  0.18293089
   0.16838441  0.75740587  0.50851923
   0.50405193  0.24021256  0.50899658
   0.50445269  0.76330997  0.50975760