unknown system                          
           1
    11.636000    0.000000    0.000000
     0.000000    7.905000    0.000000
     0.000000    0.000000   11.636000
   O    La   Ti   Li
    54    10    18     6
Direct configuration=     1
   0.00102016  0.25869152  0.18409387
   0.16517046  0.00076089  0.18755411
   0.16001075  0.27977663  0.01000648
   0.00158200  0.74394203  0.18260194
   0.17913840  0.50062145  0.17168239
   0.16306374  0.71853278  0.00947560
   0.33495241  0.23991920  0.17575810
   0.50347572  0.00126848  0.17816004
   0.51070488  0.28151746  0.00982773
   0.33504532  0.76053858  0.17961637
   0.47554118  0.50018443  0.17582301
   0.50736673  0.71757494  0.00995190
   0.83854267  0.00154816  0.17433388
   0.83252373  0.25077451  0.00824913
   0.66872957  0.70335450  0.17669884
   0.85157102  0.50196077  0.16584934
   0.83314776  0.75268829  0.00837059
   0.00398697  0.25032209  0.51623965
   0.17714842  0.00158968  0.50677779
   0.16629682  0.29525407  0.34307144
   0.00369544  0.75351866  0.51590173
   0.15871630  0.50146574  0.53240107
   0.16590565  0.70665849  0.34320703
   0.33531460  0.28002005  0.50211227
   0.48560027  0.00197613  0.50943413
   0.50738379  0.28390007  0.34312611
   0.33528477  0.72407630  0.50402909
   0.50641603  0.50147325  0.52624667
   0.50742713  0.71818782  0.34326775
   0.66847188  0.27513996  0.51828683
   0.84133093  0.00216020  0.52110711
   0.83134558  0.27398315  0.34370937
   0.66889623  0.72909734  0.51720646
   0.84760147  0.50252046  0.49977325
   0.83179896  0.73059623  0.34319567
   0.00141142  0.27762142  0.83780321
   0.19934801  0.00100177  0.85177410
   0.19122246  0.23667049  0.67801809
   0.00302130  0.72199011  0.83963274
   0.16889543  0.49699332  0.82405679
   0.18764935  0.76340195  0.67838487
   0.33624545  0.27480856  0.86309366
   0.48070853  0.00137136  0.84709020
   0.47583359  0.24454296  0.67692399
   0.33552118  0.71519892  0.85430310
   0.51630828  0.49974002  0.82760270
   0.47952530  0.75765856  0.67646982
   0.66662451  0.24237713  0.82754667
   0.83308673  0.00113199  0.83805029
   0.83682329  0.29779515  0.67601154
   0.66575041  0.75765603  0.83071726
   0.82119669  0.50157452  0.85987521
   0.83655383  0.70875160  0.67634150
   0.66923647  0.30064378  0.17745620
   0.99913531  0.50266852  0.00884928
   0.33464133  0.50250283  0.01314668
   0.67130789  0.50260861  0.00960117
   0.99649620  0.50104577  0.34057189
   0.33838454  0.50155739  0.33694830
   0.66933311  0.50154297  0.34834936
   0.00096317  0.50422649  0.67072315
   0.33444758  0.00167739  0.66566227
   0.33522350  0.50386512  0.67301105
   0.66995745  0.50435250  0.67512337
   0.16797091  0.24412081  0.17187108
   0.16826099  0.75919949  0.17260804
   0.50605527  0.24071071  0.17325539
   0.50529617  0.76360651  0.17467229
   0.83130489  0.24325771  0.17857165
   0.83102722  0.76030591  0.17844887
   0.16945615  0.75775744  0.50098147
   0.50450147  0.24142977  0.50349271
   0.50493824  0.76378847  0.50445154
   0.83277552  0.23915393  0.50957677
   0.83292277  0.76626408  0.50876343
   0.16585521  0.24852239  0.84052984
   0.16852673  0.76566267  0.84290522
   0.50350058  0.25061704  0.84183384
   0.50105405  0.76053141  0.84495706
   0.83795020  0.24343354  0.83782235
   0.83871055  0.76051918  0.83836018
   0.16963388  0.24663007  0.50071225
   0.33914642  0.04302290  0.94517990
   0.00251725  0.00140283  0.21598121
   0.33425838  0.00140244  0.22752404
   0.83248579  0.00200679  0.00740547
   0.00691180  0.00224953  0.54950282
   0.66695583  0.00038057  0.79465972
Direct configuration=     2
   0.00102608  0.25870777  0.18408360
   0.16516227  0.00074123  0.18755330
   0.16001752  0.27978498  0.01003360
   0.00159006  0.74392968  0.18259260
   0.17914132  0.50060488  0.17168503
   0.16306346  0.71852884  0.00947939
   0.33496541  0.23991628  0.17574562
   0.50346969  0.00127692  0.17816084
   0.51070809  0.28150654  0.00982033
   0.33504519  0.76054410  0.17961037
   0.47552891  0.50018327  0.17580996
   0.50737237  0.71758407  0.00992375
   0.83854214  0.00155049  0.17433015
   0.83251726  0.25077202  0.00824895
   0.66872271  0.70334642  0.17670444
   0.85157955  0.50194470  0.16584158
   0.83314372  0.75268696  0.00836022
   0.00399156  0.25032852  0.51624163
   0.17713497  0.00158390  0.50678612
   0.16629332  0.29525272  0.34308662
   0.00370581  0.75350965  0.51589286
   0.15871161  0.50147872  0.53239943
   0.16590392  0.70665764  0.34321789
   0.33531215  0.28003226  0.50210874
   0.48558137  0.00196950  0.50942819
   0.50738722  0.28390222  0.34315637
   0.33527481  0.72405790  0.50401930
   0.50641255  0.50148306  0.52625421
   0.50742873  0.71817676  0.34328294
   0.66847884  0.27513789  0.51827993
   0.84132888  0.00216687  0.52111898
   0.83133384  0.27398123  0.34370992
   0.66890558  0.72910127  0.51719569
   0.84759448  0.50252777  0.49976646
   0.83179310  0.73059234  0.34320015
   0.00141949  0.27762619  0.83780948
   0.19936271  0.00101798  0.85177617
   0.19121910  0.23667793  0.67799860
   0.00302542  0.72197763  0.83964312
   0.16889182  0.49701401  0.82406102
   0.18764315  0.76338086  0.67837595
   0.33623604  0.27480458  0.86309687
   0.48070549  0.00139043  0.84709447
   0.47584371  0.24453739  0.67693697
   0.33553023  0.71517881  0.85430733
   0.51633182  0.49975012  0.82760810
   0.47953421  0.75765145  0.67648367
   0.66661501  0.24237294  0.82754521
   0.83308066  0.00113709  0.83804805
   0.83683225  0.29778991  0.67601903
   0.66572916  0.75766184  0.83070835
   0.82120417  0.50157371  0.85987634
   0.83655688  0.70875818  0.67634885
   0.66922280  0.30064994  0.17745770
   0.99913603  0.50266740  0.00884666
   0.33464056  0.50250497  0.01314581
   0.67131005  0.50261078  0.00960325
   0.99649478  0.50104583  0.34057123
   0.33838384  0.50155334  0.33694196
   0.66933399  0.50154298  0.34835017
   0.00096414  0.50422819  0.67072671
   0.33444383  0.00167523  0.66566301
   0.33522676  0.50386733  0.67300965
   0.66995632  0.50435204  0.67512383
   0.16797427  0.24411483  0.17186495
   0.16826325  0.75920762  0.17260757
   0.50605267  0.24070781  0.17326077
   0.50529671  0.76360776  0.17467466
   0.83130761  0.24324691  0.17857218
   0.83103217  0.76031056  0.17845056
   0.16946036  0.75776766  0.50098674
   0.50449822  0.24142442  0.50348950
   0.50493067  0.76379004  0.50444933
   0.83277962  0.23916554  0.50957609
   0.83292160  0.76625879  0.50876324
   0.16585535  0.24852001  0.84053587
   0.16852963  0.76566610  0.84290997
   0.50350075  0.25061597  0.84182523
   0.50105533  0.76053473  0.84495364
   0.83795336  0.24342628  0.83782192
   0.83871200  0.76052653  0.83836603
   0.16963481  0.24662812  0.50071349
   0.33913327  0.04302426  0.94518468
   0.00252146  0.00140352  0.21596820
   0.33425238  0.00140164  0.22751802
   0.83243728  0.00200011  0.00740827
   0.00692790  0.00226060  0.54951046
   0.66696826  0.00037455  0.79462498
Direct configuration=     3
   0.00103269  0.25872457  0.18407350
   0.16515629  0.00072248  0.18755280
   0.16002429  0.27979304  0.01005710
   0.00159950  0.74391627  0.18258307
   0.17914414  0.50058933  0.17168870
   0.16306344  0.71852495  0.00948295
   0.33497929  0.23991139  0.17573373
   0.50346305  0.00128250  0.17816177
   0.51071083  0.28149554  0.00981239
   0.33504646  0.76055120  0.17960443
   0.47551708  0.50018301  0.17579721
   0.50737760  0.71759362  0.00989574
   0.83854111  0.00155461  0.17432607
   0.83251084  0.25076969  0.00824657
   0.66871333  0.70333822  0.17670959
   0.85158846  0.50192818  0.16583316
   0.83313944  0.75268555  0.00834935
   0.00399968  0.25033587  0.51624394
   0.17712194  0.00157638  0.50679496
   0.16629029  0.29525254  0.34310244
   0.00371997  0.75350049  0.51588445
   0.15870753  0.50149045  0.53239793
   0.16590272  0.70665642  0.34323016
   0.33530790  0.28004526  0.50210527
   0.48556285  0.00196198  0.50942213
   0.50738997  0.28390456  0.34318507
   0.33526238  0.72403937  0.50400885
   0.50640847  0.50149237  0.52626159
   0.50742938  0.71816599  0.34329691
   0.66848479  0.27513532  0.51827305
   0.84132581  0.00217680  0.52113054
   0.83132197  0.27397949  0.34371279
   0.66891253  0.72910541  0.51718543
   0.84758772  0.50253366  0.49976048
   0.83178695  0.73058839  0.34320623
   0.00142820  0.27763143  0.83781562
   0.19937733  0.00103154  0.85177794
   0.19121543  0.23668668  0.67797817
   0.00302941  0.72196520  0.83965260
   0.16888729  0.49703500  0.82406475
   0.18763705  0.76336019  0.67836617
   0.33622825  0.27480111  0.86310019
   0.48070243  0.00140596  0.84709807
   0.47585341  0.24453273  0.67695075
   0.33554085  0.71515930  0.85431094
   0.51635435  0.49976154  0.82761303
   0.47954357  0.75764436  0.67650087
   0.66660521  0.24236943  0.82754331
   0.83307432  0.00114354  0.83804579
   0.83684103  0.29778510  0.67602708
   0.66570782  0.75766896  0.83069884
   0.82121151  0.50157141  0.85987695
   0.83656016  0.70876406  0.67635686
   0.66920722  0.30065598  0.17745934
   0.99913679  0.50266626  0.00884420
   0.33463973  0.50250701  0.01314496
   0.67131222  0.50261293  0.00960540
   0.99649321  0.50104594  0.34057052
   0.33838317  0.50154932  0.33693564
   0.66933499  0.50154302  0.34835101
   0.00096509  0.50422986  0.67073009
   0.33444014  0.00167312  0.66566381
   0.33523001  0.50386956  0.67300824
   0.66995521  0.50435154  0.67512425
   0.16797702  0.24410900  0.17185853
   0.16826461  0.75921530  0.17260677
   0.50605070  0.24070648  0.17326587
   0.50529791  0.76360776  0.17467710
   0.83131042  0.24323601  0.17857291
   0.83103739  0.76031499  0.17845266
   0.16946408  0.75777764  0.50099189
   0.50449551  0.24141921  0.50348651
   0.50492360  0.76379128  0.50444729
   0.83278347  0.23917732  0.50957484
   0.83292042  0.76625255  0.50876243
   0.16585559  0.24851746  0.84054240
   0.16853266  0.76567031  0.84291555
   0.50350101  0.25061518  0.84181687
   0.50105644  0.76053775  0.84495016
   0.83795635  0.24341923  0.83782161
   0.83871374  0.76053348  0.83837221
   0.16963538  0.24662645  0.50071480
   0.33911840  0.04302684  0.94518828
   0.00252343  0.00140417  0.21595479
   0.33424606  0.00140155  0.22751233
   0.83238945  0.00199353  0.00741204
   0.00694530  0.00227183  0.54951802
   0.66698146  0.00036787  0.79459203
Direct configuration=     4
   0.00103996  0.25874187  0.18406343
   0.16515243  0.00070439  0.18755250
   0.16003112  0.27980056  0.01007720
   0.00161018  0.74390192  0.18257317
   0.17914696  0.50057457  0.17169347
   0.16306367  0.71852144  0.00948630
   0.33499419  0.23990432  0.17572232
   0.50345587  0.00128511  0.17816286
   0.51071312  0.28148408  0.00980429
   0.33504923  0.76056008  0.17959848
   0.47550566  0.50018380  0.17578472
   0.50738252  0.71760406  0.00986821
   0.83853946  0.00156030  0.17432166
   0.83250441  0.25076728  0.00824210
   0.66870143  0.70333025  0.17671443
   0.85159766  0.50191120  0.16582405
   0.83313483  0.75268426  0.00833799
   0.00401109  0.25034415  0.51624658
   0.17710918  0.00156718  0.50680437
   0.16628771  0.29525329  0.34311893
   0.00373763  0.75349120  0.51587639
   0.15870395  0.50150102  0.53239655
   0.16590202  0.70665501  0.34324372
   0.33530205  0.28005890  0.50210182
   0.48554453  0.00195348  0.50941582
   0.50739210  0.28390685  0.34321245
   0.33524771  0.72402080  0.50399767
   0.50640386  0.50150127  0.52626885
   0.50742917  0.71815570  0.34330971
   0.66848987  0.27513201  0.51826610
   0.84132163  0.00218996  0.52114194
   0.83130982  0.27397763  0.34371779
   0.66891725  0.72911008  0.51717547
   0.84758105  0.50253823  0.49975527
   0.83178041  0.73058469  0.34321365
   0.00143771  0.27763686  0.83782183
   0.19939186  0.00104255  0.85177950
   0.19121127  0.23669667  0.67795715
   0.00303335  0.72195306  0.83966140
   0.16888173  0.49705617  0.82406822
   0.18763089  0.76333992  0.67835595
   0.33622163  0.27479799  0.86310368
   0.48069924  0.00141819  0.84710112
   0.47586286  0.24452878  0.67696532
   0.33555272  0.71514044  0.85431399
   0.51637614  0.49977418  0.82761754
   0.47955347  0.75763740  0.67652119
   0.66659529  0.24236647  0.82754099
   0.83306781  0.00115127  0.83804342
   0.83684975  0.29778031  0.67603586
   0.66568650  0.75767757  0.83068867
   0.82121881  0.50156770  0.85987701
   0.83656374  0.70876970  0.67636572
   0.66918966  0.30066164  0.17746126
   0.99913759  0.50266507  0.00884188
   0.33463884  0.50250895  0.01314413
   0.67131438  0.50261502  0.00960760
   0.99649151  0.50104610  0.34056979
   0.33838251  0.50154530  0.33692931
   0.66933610  0.50154310  0.34835189
   0.00096602  0.50423148  0.67073331
   0.33443649  0.00167107  0.66566468
   0.33523330  0.50387183  0.67300682
   0.66995408  0.50435101  0.67512465
   0.16797919  0.24410347  0.17185185
   0.16826512  0.75922242  0.17260568
   0.50604933  0.24070684  0.17327057
   0.50529971  0.76360641  0.17467951
   0.83131333  0.24322517  0.17857381
   0.83104290  0.76031907  0.17845517
   0.16946727  0.75778727  0.50099689
   0.50449333  0.24141426  0.50348379
   0.50491702  0.76379205  0.50444551
   0.83278710  0.23918927  0.50957305
   0.83291926  0.76624540  0.50876105
   0.16585602  0.24851491  0.84054931
   0.16853591  0.76567521  0.84292185
   0.50350138  0.25061473  0.84180876
   0.50105741  0.76054051  0.84494656
   0.83795909  0.24341246  0.83782138
   0.83871570  0.76053999  0.83837865
   0.16963556  0.24662515  0.50071615
   0.33910201  0.04303071  0.94519078
   0.00252324  0.00140476  0.21594104
   0.33423943  0.00140213  0.22750701
   0.83234228  0.00198712  0.00741667
   0.00696392  0.00228315  0.54952551
   0.66699514  0.00036056  0.79456081
Direct configuration=     5
   0.00104779  0.25875963  0.18405350
   0.16515069  0.00068743  0.18755251
   0.16003798  0.27980771  0.01009346
   0.00162184  0.74388652  0.18256298
   0.17914980  0.50056063  0.17169935
   0.16306420  0.71851809  0.00948939
   0.33500975  0.23989516  0.17571154
   0.50344810  0.00128468  0.17816420
   0.51071495  0.28147253  0.00979604
   0.33505345  0.76057056  0.17959256
   0.47549468  0.50018561  0.17577256
   0.50738708  0.71761510  0.00984160
   0.83853743  0.00156743  0.17431684
   0.83249800  0.25076492  0.00823565
   0.66868722  0.70332241  0.17671889
   0.85160718  0.50189399  0.16581427
   0.83312988  0.75268299  0.00832645
   0.00402566  0.25035356  0.51624953
   0.17709686  0.00155654  0.50681442
   0.16628559  0.29525521  0.34313557
   0.00375848  0.75348165  0.51586874
   0.15870088  0.50151014  0.53239537
   0.16590184  0.70665313  0.34325812
   0.33529476  0.28007338  0.50209847
   0.48552632  0.00194416  0.50940942
   0.50739355  0.28390941  0.34323803
   0.33523114  0.72400206  0.50398587
   0.50639876  0.50150962  0.52627608
   0.50742800  0.71814567  0.34332110
   0.66849392  0.27512823  0.51825918
   0.84131653  0.00220617  0.52115316
   0.83129755  0.27397588  0.34372477
   0.66891955  0.72911506  0.51716593
   0.84757456  0.50254139  0.49975084
   0.83177362  0.73058103  0.34322220
   0.00144794  0.27764265  0.83782815
   0.19940634  0.00105101  0.85178077
   0.19120678  0.23670804  0.67793581
   0.00303717  0.72194122  0.83966947
   0.16887522  0.49707726  0.82407138
   0.18762486  0.76332018  0.67834543
   0.33621624  0.27479559  0.86310724
   0.48069578  0.00142707  0.84710343
   0.47587186  0.24452567  0.67698042
   0.33556561  0.71512211  0.85431635
   0.51639712  0.49978781  0.82762154
   0.47956369  0.75763059  0.67654431
   0.66658549  0.24236419  0.82753815
   0.83306100  0.00116027  0.83804107
   0.83685839  0.29777586  0.67604519
   0.66566569  0.75768758  0.83067777
   0.82122598  0.50156253  0.85987659
   0.83656759  0.70877481  0.67637521
   0.66917039  0.30066702  0.17746346
   0.99913845  0.50266385  0.00883963
   0.33463789  0.50251081  0.01314328
   0.67131654  0.50261710  0.00960986
   0.99648970  0.50104632  0.34056902
   0.33838186  0.50154129  0.33692297
   0.66933733  0.50154321  0.34835278
   0.00096693  0.50423307  0.67073642
   0.33443288  0.00166907  0.66566565
   0.33523659  0.50387412  0.67300543
   0.66995299  0.50435044  0.67512503
   0.16798078  0.24409826  0.17184500
   0.16826481  0.75922889  0.17260434
   0.50604859  0.24070884  0.17327481
   0.50530212  0.76360376  0.17468187
   0.83131628  0.24321447  0.17857489
   0.83104866  0.76032274  0.17845808
   0.16946989  0.75779655  0.50100176
   0.50449167  0.24140953  0.50348139
   0.50491093  0.76379237  0.50444400
   0.83279049  0.23920126  0.50957076
   0.83291816  0.76623742  0.50875917
   0.16585664  0.24851234  0.84055653
   0.16853936  0.76568071  0.84292888
   0.50350189  0.25061452  0.84180100
   0.50105823  0.76054305  0.84494288
   0.83796158  0.24340600  0.83782123
   0.83871790  0.76054603  0.83838525
   0.16963538  0.24662420  0.50071764
   0.33908425  0.04303587  0.94519211
   0.00252088  0.00140533  0.21592691
   0.33423261  0.00140328  0.22750202
   0.83229580  0.00198098  0.00742214
   0.00698340  0.00229442  0.54953290
   0.66700934  0.00035272  0.79453137
Direct configuration=     6
   0.00105593  0.25877748  0.18404374
   0.16515111  0.00067169  0.18755276
   0.16004485  0.27981412  0.01010591
   0.00163409  0.74387033  0.18255253
   0.17915266  0.50054770  0.17170644
   0.16306498  0.71851527  0.00949243
   0.33502585  0.23988376  0.17570150
   0.50343993  0.00128102  0.17816582
   0.51071635  0.28146062  0.00978823
   0.33505912  0.76058275  0.17958672
   0.47548421  0.50018849  0.17576086
   0.50739135  0.71762695  0.00981676
   0.83853485  0.00157566  0.17431177
   0.83249159  0.25076235  0.00822760
   0.66867110  0.70331504  0.17672301
   0.85161687  0.50187684  0.16580396
   0.83312459  0.75268198  0.00831519
   0.00404296  0.25036394  0.51625270
   0.17708499  0.00154460  0.50682494
   0.16628393  0.29525804  0.34315204
   0.00378194  0.75347206  0.51586144
   0.15869835  0.50151772  0.53239431
   0.16590216  0.70665097  0.34327298
   0.33528626  0.28008849  0.50209517
   0.48550842  0.00193401  0.50940278
   0.50739431  0.28391197  0.34326146
   0.33521302  0.72398332  0.50397346
   0.50639315  0.50151738  0.52628321
   0.50742588  0.71813620  0.34333084
   0.66849697  0.27512375  0.51825226
   0.84131042  0.00222515  0.52116405
   0.83128522  0.27397398  0.34373351
   0.66891953  0.72912063  0.51715673
   0.84756827  0.50254325  0.49974724
   0.83176661  0.73057771  0.34323152
   0.00145879  0.27764837  0.83783463
   0.19942042  0.00105663  0.85178177
   0.19120179  0.23672072  0.67791453
   0.00304079  0.72193009  0.83967687
   0.16886779  0.49709801  0.82407429
   0.18761888  0.76330109  0.67833484
   0.33621198  0.27479385  0.86311088
   0.48069214  0.00143245  0.84710508
   0.47588049  0.24452341  0.67699563
   0.33557915  0.71510461  0.85431803
   0.51641715  0.49980222  0.82762506
   0.47957430  0.75762397  0.67656961
   0.66657613  0.24236248  0.82753486
   0.83305412  0.00117024  0.83803871
   0.83686692  0.29777154  0.67605484
   0.66564589  0.75769912  0.83066624
   0.82123303  0.50155608  0.85987570
   0.83657173  0.70877966  0.67638510
   0.66914978  0.30067187  0.17746600
   0.99913936  0.50266253  0.00883756
   0.33463690  0.50251256  0.01314242
   0.67131867  0.50261909  0.00961208
   0.99648780  0.50104656  0.34056824
   0.33838119  0.50153726  0.33691664
   0.66933865  0.50154332  0.34835376
   0.00096787  0.50423461  0.67073932
   0.33442931  0.00166712  0.66566671
   0.33523992  0.50387646  0.67300404
   0.66995183  0.50434983  0.67512543
   0.16798186  0.24409352  0.17183802
   0.16826376  0.75923458  0.17260277
   0.50604841  0.24071259  0.17327847
   0.50530506  0.76359972  0.17468406
   0.83131928  0.24320410  0.17857606
   0.83105467  0.76032586  0.17846134
   0.16947196  0.75780534  0.50100654
   0.50449047  0.24140516  0.50347943
   0.50490527  0.76379209  0.50444289
   0.83279368  0.23921332  0.50956808
   0.83291717  0.76622862  0.50875690
   0.16585755  0.24850991  0.84056397
   0.16854313  0.76568671  0.84293654
   0.50350254  0.25061461  0.84179358
   0.50105888  0.76054537  0.84493909
   0.83796374  0.24339992  0.83782114
   0.83872026  0.76055155  0.83839196
   0.16963485  0.24662370  0.50071930
   0.33906538  0.04304237  0.94519235
   0.00251645  0.00140585  0.21591244
   0.33422564  0.00140496  0.22749733
   0.83224998  0.00197514  0.00742833
   0.00700374  0.00230557  0.54954021
   0.66702374  0.00034436  0.79450369
Direct configuration=     7
   0.00106420  0.25879530  0.18403424
   0.16515357  0.00065739  0.18755330
   0.16005160  0.27981985  0.01011432
   0.00164658  0.74385343  0.18254189
   0.17915545  0.50053591  0.17171467
   0.16306593  0.71851294  0.00949532
   0.33504220  0.23987008  0.17569228
   0.50343137  0.00127419  0.17816776
   0.51071737  0.28144855  0.00978084
   0.33506609  0.76059662  0.17958099
   0.47547445  0.50019251  0.17574972
   0.50739540  0.71763949  0.00979395
   0.83853187  0.00158472  0.17430644
   0.83248522  0.25075967  0.00821813
   0.66865348  0.70330807  0.17672680
   0.85162661  0.50186005  0.16579320
   0.83311897  0.75268114  0.00830447
   0.00406276  0.25037523  0.51625609
   0.17707363  0.00153154  0.50683593
   0.16628270  0.29526174  0.34316798
   0.00380761  0.75346253  0.51585453
   0.15869630  0.50152366  0.53239334
   0.16590294  0.70664858  0.34328798
   0.33527671  0.28010409  0.50209194
   0.48549081  0.00192312  0.50939595
   0.50739447  0.28391469  0.34328245
   0.33519365  0.72396478  0.50396050
   0.50638720  0.50152453  0.52629009
   0.50742288  0.71812721  0.34333884
   0.66849898  0.27511865  0.51824536
   0.84130344  0.00224649  0.52117459
   0.83127288  0.27397204  0.34374370
   0.66891722  0.72912678  0.51714788
   0.84756216  0.50254390  0.49974438
   0.83175943  0.73057471  0.34324130
   0.00147019  0.27765426  0.83784130
   0.19943411  0.00105950  0.85178244
   0.19119636  0.23673455  0.67789362
   0.00304413  0.72191967  0.83968364
   0.16885933  0.49711834  0.82407703
   0.18761297  0.76328295  0.67832439
   0.33620876  0.27479280  0.86311458
   0.48068824  0.00143450  0.84710606
   0.47588861  0.24452187  0.67701073
   0.33559298  0.71508805  0.85431904
   0.51643623  0.49981723  0.82762817
   0.47958514  0.75761778  0.67659670
   0.66656740  0.24236132  0.82753108
   0.83304711  0.00118099  0.83803645
   0.83687534  0.29776750  0.67606471
   0.66562759  0.75771213  0.83065410
   0.82124003  0.50154850  0.85987446
   0.83657617  0.70878417  0.67639528
   0.66912824  0.30067629  0.17746892
   0.99914032  0.50266127  0.00883550
   0.33463589  0.50251429  0.01314156
   0.67132077  0.50262110  0.00961444
   0.99648576  0.50104692  0.34056743
   0.33838056  0.50153334  0.33691033
   0.66934010  0.50154352  0.34835470
   0.00096878  0.50423617  0.67074219
   0.33442575  0.00166522  0.66566787
   0.33524317  0.50387881  0.67300266
   0.66995080  0.50434923  0.67512576
   0.16798247  0.24408917  0.17183097
   0.16826202  0.75923949  0.17260101
   0.50604883  0.24071795  0.17328155
   0.50530854  0.76359440  0.17468607
   0.83132224  0.24319414  0.17857739
   0.83106088  0.76032836  0.17846494
   0.16947348  0.75781368  0.50101122
   0.50448977  0.24140101  0.50347790
   0.50490007  0.76379128  0.50444212
   0.83279655  0.23922533  0.50956501
   0.83291629  0.76621917  0.50875429
   0.16585871  0.24850755  0.84057157
   0.16854716  0.76569320  0.84294477
   0.50350332  0.25061487  0.84178661
   0.50105939  0.76054759  0.84493527
   0.83796560  0.24339424  0.83782109
   0.83872283  0.76055653  0.83839874
   0.16963399  0.24662362  0.50072116
   0.33904562  0.04305013  0.94519144
   0.00251001  0.00140620  0.21589766
   0.33421861  0.00140707  0.22749292
   0.83220486  0.00196976  0.00743514
   0.00702473  0.00231650  0.54954741
   0.66703833  0.00033555  0.79447777
Direct configuration=     8
   0.00107244  0.25881289  0.18402505
   0.16515803  0.00064466  0.18755414
   0.16005829  0.27982494  0.01011854
   0.00165899  0.74383590  0.18253111
   0.17915827  0.50052529  0.17172407
   0.16306713  0.71851095  0.00949798
   0.33505861  0.23985421  0.17568393
   0.50342244  0.00126421  0.17817006
   0.51071799  0.28143643  0.00977407
   0.33507426  0.76061200  0.17957538
   0.47546528  0.50019762  0.17573918
   0.50739921  0.71765246  0.00977365
   0.83852854  0.00159429  0.17430084
   0.83247884  0.25075674  0.00820749
   0.66863472  0.70330131  0.17673025
   0.85163633  0.50184384  0.16578204
   0.83311296  0.75268062  0.00829457
   0.00408463  0.25038744  0.51625969
   0.17706284  0.00151757  0.50684740
   0.16628187  0.29526646  0.34318296
   0.00383487  0.75345306  0.51584807
   0.15869470  0.50152786  0.53239261
   0.16590415  0.70664573  0.34330264
   0.33526641  0.28012026  0.50208883
   0.48547342  0.00191155  0.50938904
   0.50739398  0.28391777  0.34330073
   0.33517350  0.72394631  0.50394711
   0.50638088  0.50153103  0.52629689
   0.50741898  0.71811850  0.34334499
   0.66849997  0.27511316  0.51823859
   0.84129571  0.00226980  0.52118479
   0.83126063  0.27397014  0.34375512
   0.66891275  0.72913330  0.51713946
   0.84755628  0.50254346  0.49974233
   0.83175216  0.73057196  0.34325131
   0.00148209  0.27766032  0.83784815
   0.19944747  0.00105969  0.85178281
   0.19119057  0.23674952  0.67787342
   0.00304723  0.72190987  0.83968975
   0.16884999  0.49713807  0.82407955
   0.18760724  0.76326579  0.67831435
   0.33620650  0.27479265  0.86311834
   0.48068396  0.00143340  0.84710634
   0.47589611  0.24452112  0.67702542
   0.33560677  0.71507227  0.85431935
   0.51645433  0.49983264  0.82763078
   0.47959609  0.75761197  0.67662503
   0.66655954  0.24236067  0.82752679
   0.83303998  0.00119232  0.83803431
   0.83688362  0.29776393  0.67607460
   0.66561123  0.75772661  0.83064134
   0.82124683  0.50153993  0.85987288
   0.83658090  0.70878820  0.67640552
   0.66910609  0.30068047  0.17747225
   0.99914131  0.50265993  0.00883362
   0.33463486  0.50251591  0.01314071
   0.67132284  0.50262302  0.00961677
   0.99648366  0.50104732  0.34056663
   0.33837990  0.50152941  0.33690402
   0.66934163  0.50154370  0.34835574
   0.00096972  0.50423768  0.67074481
   0.33442225  0.00166339  0.66566912
   0.33524644  0.50388121  0.67300124
   0.66994973  0.50434859  0.67512610
   0.16798266  0.24408537  0.17182393
   0.16825970  0.75924347  0.17259916
   0.50604978  0.24072493  0.17328397
   0.50531245  0.76358778  0.17468785
   0.83132514  0.24318478  0.17857885
   0.83106730  0.76033011  0.17846884
   0.16947445  0.75782142  0.50101582
   0.50448947  0.24139724  0.50347690
   0.50489522  0.76378981  0.50444179
   0.83279916  0.23923732  0.50956161
   0.83291557  0.76620907  0.50875142
   0.16586022  0.24850537  0.84057921
   0.16855155  0.76570003  0.84295349
   0.50350425  0.25061539  0.84178009
   0.50105973  0.76054964  0.84493140
   0.83796710  0.24338903  0.83782107
   0.83872550  0.76056089  0.83840550
   0.16963283  0.24662406  0.50072329
   0.33902520  0.04305924  0.94518933
   0.00250173  0.00140643  0.21588257
   0.33421166  0.00140953  0.22748877
   0.83216046  0.00196503  0.00744247
   0.00704625  0.00232712  0.54955442
   0.66705298  0.00032638  0.79445362
Direct configuration=     9
   0.00108057  0.25883023  0.18401617
   0.16516437  0.00063380  0.18755530
   0.16006479  0.27982955  0.01011833
   0.00167108  0.74381769  0.18252018
   0.17916106  0.50051583  0.17173454
   0.16306848  0.71850911  0.00950021
   0.33507479  0.23983620  0.17567644
   0.50341315  0.00125135  0.17817275
   0.51071828  0.28142445  0.00976764
   0.33508343  0.76062880  0.17956990
   0.47545677  0.50020375  0.17572921
   0.50740283  0.71766570  0.00975583
   0.83852495  0.00160427  0.17429495
   0.83247247  0.25075364  0.00819570
   0.66861519  0.70329456  0.17673333
   0.85164602  0.50182831  0.16577043
   0.83310656  0.75268029  0.00828551
   0.00410835  0.25040058  0.51626356
   0.17705270  0.00150296  0.50685945
   0.16628142  0.29527223  0.34319670
   0.00386331  0.75344366  0.51584214
   0.15869349  0.50153020  0.53239220
   0.16590573  0.70664228  0.34331672
   0.33525555  0.28013696  0.50208592
   0.48545616  0.00189947  0.50938217
   0.50739288  0.28392134  0.34331625
   0.33515288  0.72392797  0.50393343
   0.50637433  0.50153684  0.52630362
   0.50741424  0.71810993  0.34334936
   0.66849988  0.27510744  0.51823202
   0.84128735  0.00229482  0.52119470
   0.83124851  0.27396840  0.34376755
   0.66890614  0.72914009  0.51713152
   0.84755064  0.50254201  0.49974114
   0.83174482  0.73056934  0.34326138
   0.00149447  0.27766677  0.83785525
   0.19946060  0.00105748  0.85178281
   0.19118449  0.23676551  0.67785425
   0.00305003  0.72190060  0.83969526
   0.16883972  0.49715717  0.82408190
   0.18760180  0.76324981  0.67830496
   0.33620510  0.27479346  0.86312215
   0.48067920  0.00142945  0.84710590
   0.47590289  0.24452106  0.67703962
   0.33562021  0.71505719  0.85431896
   0.51647155  0.49984820  0.82763286
   0.47960698  0.75760664  0.67665426
   0.66655266  0.24236049  0.82752193
   0.83303265  0.00120416  0.83803232
   0.83689178  0.29776097  0.67608452
   0.66559716  0.75774253  0.83062790
   0.82125348  0.50153042  0.85987106
   0.83658590  0.70879157  0.67641574
   0.66908367  0.30068457  0.17747594
   0.99914235  0.50265863  0.00883178
   0.33463383  0.50251748  0.01313989
   0.67132486  0.50262493  0.00961921
   0.99648146  0.50104782  0.34056581
   0.33837924  0.50152557  0.33689775
   0.66934327  0.50154396  0.34835677
   0.00097066  0.50423920  0.67074734
   0.33441876  0.00166161  0.66567045
   0.33524964  0.50388364  0.67299980
   0.66994874  0.50434796  0.67512638
   0.16798249  0.24408194  0.17181698
   0.16825686  0.75924665  0.17259728
   0.50605130  0.24073327  0.17328577
   0.50531680  0.76358009  0.17468938
   0.83132791  0.24317600  0.17858049
   0.83107381  0.76033115  0.17847308
   0.16947486  0.75782863  0.50102031
   0.50448962  0.24139367  0.50347637
   0.50489078  0.76378778  0.50444176